
  **** **** ******  **  PROGRAM STARTED AT               2011-08-14 10:26:23.936
 ***** ** ***  *** **   PROGRAM STARTED ON                              r11i3n15
 **    ****   ******    PROGRAM STARTED BY                                      
 ***** **    ** ** **   PROGRAM PROCESS ID                                   709
  **** **  *******  **  PROGRAM STARTED IN   /usr/local/u/jmlarkin/CP2K/CdSe/vib

 CP2K| version string:                CP2K version 2.2.107 (Development Version)
 CP2K| is freely available from                          http://cp2k.berlios.de/
 CP2K| Program compiled at                          Tue Jun  7 13:15:52 CDT 2011
 CP2K| Program compiled on                                             diamond01
 CP2K| Program compiled for                                   Linux-x86-64-intel
 CP2K| Last CVS entry                 cp2k_info.F/1.511/Wed Jan 19 04:35:13 2011
 CP2K| Input file name                                              temp-r-7.inp
 
 GLOBAL| Force Environment number                                              1
 GLOBAL| Basis set file name            /usr/local/u/jmlarkin/CP2K/CdSe/vib/GTH_
 GLOBAL| Geminal file name                                         BASIS_GEMINAL
 GLOBAL| Potential file name            /usr/local/u/jmlarkin/CP2K/CdSe/vib/POTE
 GLOBAL| MM Potential file name                                     MM_POTENTIAL
 GLOBAL| Coordinate file name                                      __STD_INPUT__
 GLOBAL| Method name                                                        CP2K
 GLOBAL| Project name                                                   temp-r-7
 GLOBAL| Preferred FFT library                                             FFTW3
 GLOBAL| Run type                                           VIBRATIONAL_ANALYSIS
 GLOBAL| All-to-all communication in single precision                          F
 GLOBAL| FFTs using library dependent lengths                                  F
 GLOBAL| Global print level                                               MEDIUM
 GLOBAL| Total number of message passing processes                             1
 GLOBAL| Number of threads for this process                                    1
 GLOBAL| This output is from process                                           0

 MEMORY| system memory details [Kb]
 MEMORY|                        rank 0           min           max       average
 MEMORY| MemTotal                    0             0             0             0
 MEMORY| MemFree                     0             0             0             0
 MEMORY| Buffers                     0             0             0             0
 MEMORY| Cached                      0             0             0             0
 MEMORY| Slab                        0             0             0             0
 MEMORY| SReclaimable                0             0             0             0
 MEMORY| MemLikelyFree               0             0             0             0

 WARNING : FFT library FFTW3 is not available  Trying FFTSG as a default

 *** Fundamental physical constants (SI units) ***

 *** Literature: B. J. Mohr and B. N. Taylor,
 ***             CODATA recommended values of the fundamental physical
 ***             constants: 2006, Web Version 5.1
 ***             http://physics.nist.gov/constants

 Speed of light in vacuum [m/s]                             2.99792458000000E+08
 Magnetic constant or permeability of vacuum [N/A**2]       1.25663706143592E-06
 Electric constant or permittivity of vacuum [F/m]          8.85418781762039E-12
 Planck constant (h) [J*s]                                  6.62606896000000E-34
 Planck constant (h-bar) [J*s]                              1.05457162825177E-34
 Elementary charge [C]                                      1.60217648700000E-19
 Electron mass [kg]                                         9.10938215000000E-31
 Electron g factor [ ]                                     -2.00231930436220E+00
 Proton mass [kg]                                           1.67262163700000E-27
 Fine-structure constant                                    7.29735253760000E-03
 Rydberg constant [1/m]                                     1.09737315685270E+07
 Avogrado constant [1/mol]                                  6.02214179000000E+23
 Boltzmann constant [J/K]                                   1.38065040000000E-23
 Atomic mass unit [kg]                                      1.66053878200000E-27
 Bohr radius [m]                                            5.29177208590000E-11

 *** Conversion factors ***

 [u] -> [a.u.]                                              1.82288848426455E+03
 [Angstrom] -> [Bohr] = [a.u.]                              1.88972613288564E+00
 [a.u.] = [Bohr] -> [Angstrom]                              5.29177208590000E-01
 [a.u.] -> [s]                                              2.41888432650478E-17
 [a.u.] -> [fs]                                             2.41888432650478E-02
 [a.u.] -> [J]                                              4.35974393937059E-18
 [a.u.] -> [K]                                              3.15774647902944E+05
 [a.u.] -> [kJ/mol]                                         2.62549961709828E+03
 [a.u.] -> [kcal/mol]                                       6.27509468713739E+02
 [a.u.] -> [Pa]                                             2.94210107994716E+13
 [a.u.] -> [bar]                                            2.94210107994716E+08
 [a.u.] -> [atm]                                            2.90362800883016E+08
 [a.u.] -> [eV]                                             2.72113838565563E+01
 [a.u.] -> [Hz]                                             6.57968392072181E+15
 [a.u.] -> [1/cm] (wave numbers)                            2.19474631370540E+05
 [a.u./Bohr**2] -> [1/cm]                                   5.14048714338585E+03
 

 CELL| Volume [angstrom^3]:                                             1300.000
 CELL| Vector a [angstrom]:      10.000     0.000     0.000    |a| =      10.000
 CELL| Vector b [angstrom]:       0.000    10.000     0.000    |b| =      10.000
 CELL| Vector c [angstrom]:       0.000     0.000    13.000    |c| =      13.000
 CELL| Angle (b,c), alpha [degree]:                                       90.000
 CELL| Angle (a,c), beta  [degree]:                                       90.000
 CELL| Angle (a,b), gamma [degree]:                                       90.000

 CELL_REF| Volume [angstrom^3]:                                         1300.000
 CELL_REF| Vector a [angstrom    10.000     0.000     0.000    |a| =      10.000
 CELL_REF| Vector b [angstrom     0.000    10.000     0.000    |b| =      10.000
 CELL_REF| Vector c [angstrom     0.000     0.000    13.000    |c| =      13.000
 CELL_REF| Angle (b,c), alpha [degree]:                                   90.000
 CELL_REF| Angle (a,c), beta  [degree]:                                   90.000
 CELL_REF| Angle (a,b), gamma [degree]:                                   90.000

 CELL_TOP| Volume [angstrom^3]:                                         1300.000
 CELL_TOP| Vector a [angstrom    10.000     0.000     0.000    |a| =      10.000
 CELL_TOP| Vector b [angstrom     0.000    10.000     0.000    |b| =      10.000
 CELL_TOP| Vector c [angstrom     0.000     0.000    13.000    |c| =      13.000
 CELL_TOP| Angle (b,c), alpha [degree]:                                   90.000
 CELL_TOP| Angle (a,c), beta  [degree]:                                   90.000
 CELL_TOP| Angle (a,b), gamma [degree]:                                   90.000
 
 GENERATE|  Preliminary Number of Bonds generated:                             0
 GENERATE|  Achieved consistency in connectivity generation.
 GENERATE|  Number of Bonds generated:                                         0
 GENERATE|  Preliminary Number of Bends generated:                             0
 GENERATE|  Number of Bends generated:                                         0
 GENERATE|  Number of UB generated:                                            0
 GENERATE|  Preliminary Number of Torsions generated:                          0
 GENERATE|  Number of Torsions generated:                                      0
 GENERATE|  Number of Impropers generated:                                     0
 GENERATE|  Number of 1-4 interactions generated:                              0

 *******************************************************************************
 *******************************************************************************
 **                                                                           **
 **     #####                         ##              ##                      **
 **    ##   ##            ##          ##              ##                      **
 **   ##     ##                       ##            ######                    **
 **   ##     ##  ##   ##  ##   #####  ##  ##   ####   ##    #####    #####    **
 **   ##     ##  ##   ##  ##  ##      ## ##   ##      ##   ##   ##  ##   ##   **
 **   ##  ## ##  ##   ##  ##  ##      ####     ###    ##   ######   ######    **
 **    ##  ###   ##   ##  ##  ##      ## ##      ##   ##   ##       ##        **
 **     #######   #####   ##   #####  ##  ##  ####    ##    #####   ##        **
 **           ##                                                    ##        **
 **                                                                           **
 **                                                ... make the atoms dance   **
 **                                                                           **
 **            Copyright (C) by CP2K Developers Group (2000 - 2011)           **
 **                                                                           **
 *******************************************************************************

 DFT| Spin restricted Kohn-Sham (RKS) calculation                            RKS
 DFT| Multiplicity                                                             1
 DFT| Number of spin states                                                    1
 DFT| Charge                                                                   0
 DFT| Self-interaction correction (SIC)                                       NO
 DFT| Cutoffs: density                                              1.000000E-10
 DFT|          gradient                                             1.000000E-10
 DFT|          tau                                                  1.000000E-10
 DFT|          cutoff_smoothing_range                               0.000000E+00
 DFT| XC density smoothing                                                  NONE
 DFT| XC derivatives                                                          PW
 FUNCTIONAL| ROUTINE=NEW
 FUNCTIONAL| PBE:
 FUNCTIONAL| J.P.Perdew, K.Burke, M.Ernzerhof, Phys. Rev. Letter, vol. 77, n 18,
 FUNCTIONAL|  pp. 3865-3868, (1996){spin unpolarized}
 vdW POTENTIAL|                                                   Pair Potential
 vdW POTENTIAL|                   Potential Form: S. Grimme, JCC 27: 1787 (2006)
 vdW POTENTIAL|                   Cutoff Radius [Bohr]:                    20.00
 vdW POTENTIAL|                   Scaling Factor:                         0.7500
 vdW POTENTIAL|                   Exp Prefactor for Damping:                20.0
 vdW PARAMETER|  Atom=O    C6[J*nm^6*mol^-1]=  0.7000         r(vdW)[A]=  1.3420
 vdW PARAMETER|  Atom=C    C6[J*nm^6*mol^-1]=  1.7500         r(vdW)[A]=  1.4520

 QS| Method:                                                                 GPW
 QS| Density plane wave grid type                        NON-SPHERICAL FULLSPACE
 QS| Number of grid levels:                                                    5
 QS| Density cutoff [a.u.]:                                                175.0
 QS| Multi grid cutoff [a.u.]: 1) grid level                               175.0
 QS|                           2) grid level                                58.3
 QS|                           3) grid level                                19.4
 QS|                           4) grid level                                 6.5
 QS|                           5) grid level                                 2.2
 QS| Grid level progression factor:                                          3.0
 QS| Relative density cutoff [a.u.]:                                        15.0
 QS| Consistent realspace mapping and integration 
 QS| Interaction thresholds: eps_pgf_orb:                                1.0E-06
 QS|                         eps_filter_matrix:                          0.0E+00
 QS|                         eps_core_charge:                            1.0E-14
 QS|                         eps_rho_gspace:                             1.0E-12
 QS|                         eps_rho_rspace:                             1.0E-12
 QS|                         eps_gvg_rspace:                             1.0E-06
 QS|                         eps_ppl:                                    1.0E-02
 QS|                         eps_ppnl:                                   1.0E-08


 ATOMIC KIND INFORMATION

  1. Atomic kind: O                                     Number of atoms:       2

     Orbital basis set information for                                 QZV2P-GTH

       Number of orbital shell sets:                                           2
       Number of orbital shells:                                              10
       Number of primitive Cartesian functions:                                8
       Number of Cartesian basis functions:                                   28
       Number of spherical basis functions:                                   26

       Normalised Cartesian orbitals:

                        Set   Shell   Orbital            Exponent    Coefficient

                          1       1    2s               11.829868      -0.299448
                                                         4.932631      -0.313061
                                                         1.931300       0.178604
                                                         0.772400       0.305726
                                                         0.297633       0.124142
                                                         0.107006       0.008000

                          1       2    3s               11.829868       0.000000
                                                         4.932631       0.000000
                                                         1.931300       0.000000
                                                         0.772400       0.587208
                                                         0.297633       0.000000
                                                         0.107006       0.000000

                          1       3    4s               11.829868       0.000000
                                                         4.932631       0.000000
                                                         1.931300       0.000000
                                                         0.772400       0.000000
                                                         0.297633       0.287191
                                                         0.107006       0.000000

                          1       4    5s               11.829868       0.000000
                                                         4.932631       0.000000
                                                         1.931300       0.000000
                                                         0.772400       0.000000
                                                         0.297633       0.000000
                                                         0.107006       0.133342

                          1       5    3px              11.829868       1.219605
                                                         4.932631       1.393422
                                                         1.931300       0.888549
                                                         0.772400       0.378112
                                                         0.297633       0.103178
                                                         0.107006       0.011555
                          1       5    3py              11.829868       1.219605
                                                         4.932631       1.393422
                                                         1.931300       0.888549
                                                         0.772400       0.378112
                                                         0.297633       0.103178
                                                         0.107006       0.011555
                          1       5    3pz              11.829868       1.219605
                                                         4.932631       1.393422
                                                         1.931300       0.888549
                                                         0.772400       0.378112
                                                         0.297633       0.103178
                                                         0.107006       0.011555

                          1       6    4px              11.829868       0.000000
                                                         4.932631       0.000000
                                                         1.931300       0.000000
                                                         0.772400       1.032151
                                                         0.297633       0.000000
                                                         0.107006       0.000000
                          1       6    4py              11.829868       0.000000
                                                         4.932631       0.000000
                                                         1.931300       0.000000
                                                         0.772400       1.032151
                                                         0.297633       0.000000
                                                         0.107006       0.000000
                          1       6    4pz              11.829868       0.000000
                                                         4.932631       0.000000
                                                         1.931300       0.000000
                                                         0.772400       1.032151
                                                         0.297633       0.000000
                                                         0.107006       0.000000

                          1       7    5px              11.829868       0.000000
                                                         4.932631       0.000000
                                                         1.931300       0.000000
                                                         0.772400       0.000000
                                                         0.297633       0.313359
                                                         0.107006       0.000000
                          1       7    5py              11.829868       0.000000
                                                         4.932631       0.000000
                                                         1.931300       0.000000
                                                         0.772400       0.000000
                                                         0.297633       0.313359
                                                         0.107006       0.000000
                          1       7    5pz              11.829868       0.000000
                                                         4.932631       0.000000
                                                         1.931300       0.000000
                                                         0.772400       0.000000
                                                         0.297633       0.313359
                                                         0.107006       0.000000

                          1       8    6px              11.829868       0.000000
                                                         4.932631       0.000000
                                                         1.931300       0.000000
                                                         0.772400       0.000000
                                                         0.297633       0.000000
                                                         0.107006       0.087237
                          1       8    6py              11.829868       0.000000
                                                         4.932631       0.000000
                                                         1.931300       0.000000
                                                         0.772400       0.000000
                                                         0.297633       0.000000
                                                         0.107006       0.087237
                          1       8    6pz              11.829868       0.000000
                                                         4.932631       0.000000
                                                         1.931300       0.000000
                                                         0.772400       0.000000
                                                         0.297633       0.000000
                                                         0.107006       0.087237

                          2       1    3dx2              2.314000       7.145709
                                                         0.645000       0.000000
                          2       1    3dxy              2.314000      12.376731
                                                         0.645000       0.000000
                          2       1    3dxz              2.314000      12.376731
                                                         0.645000       0.000000
                          2       1    3dy2              2.314000       7.145709
                                                         0.645000       0.000000
                          2       1    3dyz              2.314000      12.376731
                                                         0.645000       0.000000
                          2       1    3dz2              2.314000       7.145709
                                                         0.645000       0.000000

                          2       2    4dx2              2.314000       0.000000
                                                         0.645000       0.764080
                          2       2    4dxy              2.314000       0.000000
                                                         0.645000       1.323426
                          2       2    4dxz              2.314000       0.000000
                                                         0.645000       1.323426
                          2       2    4dy2              2.314000       0.000000
                                                         0.645000       0.764080
                          2       2    4dyz              2.314000       0.000000
                                                         0.645000       1.323426
                          2       2    4dz2              2.314000       0.000000
                                                         0.645000       0.764080

     Potential information for                                        GTH-PBE-q6

       Description:                       Goedecker-Teter-Hutter pseudopotential
                                           Goedecker et al., PRB 54, 1703 (1996)
                                          Hartwigsen et al., PRB 58, 3641 (1998)
                                                      Krack, TCA 114, 145 (2005)

       Gaussian exponent of the core charge distribution:               8.360253
       Electronic configuration (s p d ...):                               2   4

       Parameters of the local part of the GTH pseudopotential:

                          rloc        C1          C2          C3          C4
                        0.244554  -16.667215    2.487311

       Parameters of the non-local part of the GTH pseudopotential:

                   l      r(l)      h(i,j,l)

                   0    0.220956   18.337458
                   1    0.211332

  2. Atomic kind: C                                     Number of atoms:       1

     Orbital basis set information for                                 QZV2P-GTH

       Number of orbital shell sets:                                           2
       Number of orbital shells:                                              10
       Number of primitive Cartesian functions:                                8
       Number of Cartesian basis functions:                                   28
       Number of spherical basis functions:                                   26

       Normalised Cartesian orbitals:

                        Set   Shell   Orbital            Exponent    Coefficient

                          1       1    2s                6.211790      -0.181428
                                                         2.606342      -0.189726
                                                         1.011026       0.098111
                                                         0.409977       0.189293
                                                         0.161541       0.080390
                                                         0.059735       0.005156

                          1       2    3s                6.211790       0.000000
                                                         2.606342       0.000000
                                                         1.011026       0.000000
                                                         0.409977       0.365157
                                                         0.161541       0.000000
                                                         0.059735       0.000000

                          1       3    4s                6.211790       0.000000
                                                         2.606342       0.000000
                                                         1.011026       0.000000
                                                         0.409977       0.000000
                                                         0.161541       0.181603
                                                         0.059735       0.000000

                          1       4    5s                6.211790       0.000000
                                                         2.606342       0.000000
                                                         1.011026       0.000000
                                                         0.409977       0.000000
                                                         0.161541       0.000000
                                                         0.059735       0.086116

                          1       5    3px               6.211790       0.455098
                                                         2.606342       0.567807
                                                         1.011026       0.369480
                                                         0.409977       0.170387
                                                         0.161541       0.050941
                                                         0.059735       0.005893
                          1       5    3py               6.211790       0.455098
                                                         2.606342       0.567807
                                                         1.011026       0.369480
                                                         0.409977       0.170387
                                                         0.161541       0.050941
                                                         0.059735       0.005893
                          1       5    3pz               6.211790       0.455098
                                                         2.606342       0.567807
                                                         1.011026       0.369480
                                                         0.409977       0.170387
                                                         0.161541       0.050941
                                                         0.059735       0.005893

                          1       6    4px               6.211790       0.000000
                                                         2.606342       0.000000
                                                         1.011026       0.000000
                                                         0.409977       0.467616
                                                         0.161541       0.000000
                                                         0.059735       0.000000
                          1       6    4py               6.211790       0.000000
                                                         2.606342       0.000000
                                                         1.011026       0.000000
                                                         0.409977       0.467616
                                                         0.161541       0.000000
                                                         0.059735       0.000000
                          1       6    4pz               6.211790       0.000000
                                                         2.606342       0.000000
                                                         1.011026       0.000000
                                                         0.409977       0.467616
                                                         0.161541       0.000000
                                                         0.059735       0.000000

                          1       7    5px               6.211790       0.000000
                                                         2.606342       0.000000
                                                         1.011026       0.000000
                                                         0.409977       0.000000
                                                         0.161541       0.145980
                                                         0.059735       0.000000
                          1       7    5py               6.211790       0.000000
                                                         2.606342       0.000000
                                                         1.011026       0.000000
                                                         0.409977       0.000000
                                                         0.161541       0.145980
                                                         0.059735       0.000000
                          1       7    5pz               6.211790       0.000000
                                                         2.606342       0.000000
                                                         1.011026       0.000000
                                                         0.409977       0.000000
                                                         0.161541       0.145980
                                                         0.059735       0.000000

                          1       8    6px               6.211790       0.000000
                                                         2.606342       0.000000
                                                         1.011026       0.000000
                                                         0.409977       0.000000
                                                         0.161541       0.000000
                                                         0.059735       0.042095
                          1       8    6py               6.211790       0.000000
                                                         2.606342       0.000000
                                                         1.011026       0.000000
                                                         0.409977       0.000000
                                                         0.161541       0.000000
                                                         0.059735       0.042095
                          1       8    6pz               6.211790       0.000000
                                                         2.606342       0.000000
                                                         1.011026       0.000000
                                                         0.409977       0.000000
                                                         0.161541       0.000000
                                                         0.059735       0.042095

                          2       1    3dx2              1.097000       1.935401
                                                         0.318000       0.000000
                          2       1    3dxy              1.097000       3.352214
                                                         0.318000       0.000000
                          2       1    3dxz              1.097000       3.352214
                                                         0.318000       0.000000
                          2       1    3dy2              1.097000       1.935401
                                                         0.318000       0.000000
                          2       1    3dyz              1.097000       3.352214
                                                         0.318000       0.000000
                          2       1    3dz2              1.097000       1.935401
                                                         0.318000       0.000000

                          2       2    4dx2              1.097000       0.000000
                                                         0.318000       0.221644
                          2       2    4dxy              1.097000       0.000000
                                                         0.318000       0.383899
                          2       2    4dxz              1.097000       0.000000
                                                         0.318000       0.383899
                          2       2    4dy2              1.097000       0.000000
                                                         0.318000       0.221644
                          2       2    4dyz              1.097000       0.000000
                                                         0.318000       0.383899
                          2       2    4dz2              1.097000       0.000000
                                                         0.318000       0.221644

     Potential information for                                        GTH-PBE-q4

       Description:                       Goedecker-Teter-Hutter pseudopotential
                                           Goedecker et al., PRB 54, 1703 (1996)
                                          Hartwigsen et al., PRB 58, 3641 (1998)
                                                      Krack, TCA 114, 145 (2005)

       Gaussian exponent of the core charge distribution:               4.364419
       Electronic configuration (s p d ...):                               2   2

       Parameters of the local part of the GTH pseudopotential:

                          rloc        C1          C2          C3          C4
                        0.338471   -8.803674    1.339211

       Parameters of the non-local part of the GTH pseudopotential:

                   l      r(l)      h(i,j,l)

                   0    0.302576    9.622487
                   1    0.291507


 MOLECULE KIND INFORMATION


 All atoms are their own molecule, skipping detailed information


 TOTAL NUMBERS AND MAXIMUM NUMBERS

  Total number of            - Atomic kinds:                                   2
                             - Atoms:                                          3
                             - Shell sets:                                     6
                             - Shells:                                        30
                             - Primitive Cartesian functions:                 24
                             - Cartesian basis functions:                     84
                             - Spherical basis functions:                     78

  Maximum angular momentum of- Orbital basis functions:                        2
                             - Local part of the GTH pseudopotential:          2
                             - Non-local part of the GTH pseudopotential:      0


 MODULE QUICKSTEP:  ATOMIC COORDINATES IN angstrom

  Atom  Kind  Element       X           Y           Z          Z(eff)       Mass

       1     1 O    8    0.000000    0.000000   -1.167609      6.00      15.9994
       2     1 O    8    0.000000    0.000000    1.167609      6.00      15.9994
       3     2 C    6    0.000000    0.000000    0.000000      4.00      12.0107




 SCF PARAMETERS         Density guess:                                   RESTART
                        --------------------------------------------------------
                        max_scf:                                              30
                        max_scf_history:                                       0
                        max_diis:                                              4
                        --------------------------------------------------------
                        eps_scf:                                        1.00E-06
                        eps_scf_history:                                0.00E+00
                        eps_diis:                                       1.00E-01
                        eps_eigval:                                     1.00E-05
                        --------------------------------------------------------
                        level_shift [a.u.]:                                 0.00
                        --------------------------------------------------------
                        Outer loop SCF in use 
                        No variables optimised in outer loop
                        eps_scf                                         1.00E-06
                        max_scf                                               20
                        No outer loop optimization
                        step_size                                       5.00E-01

 PW_GRID: Information for grid number                                          7
 PW_GRID: Cutoff [a.u.]                                                    350.0
 PW_GRID: spherical cutoff:                                                   NO
 PW_GRID:   Bounds   1            -80      79                Points:         160
 PW_GRID:   Bounds   2            -80      79                Points:         160
 PW_GRID:   Bounds   3           -108     107                Points:         216
 PW_GRID: Volume element (a.u.^3)  0.1587E-02     Volume (a.u.^3)      8772.8350
 PW_GRID: Grid span                                                    FULLSPACE

 PW_GRID: Information for grid number                                          8
 PW_GRID: Cutoff [a.u.]                                                    175.0
 PW_GRID: spherical cutoff:                                                   NO
 PW_GRID:   Bounds   1            -60      59                Points:         120
 PW_GRID:   Bounds   2            -60      59                Points:         120
 PW_GRID:   Bounds   3            -75      74                Points:         150
 PW_GRID: Volume element (a.u.^3)  0.4061E-02     Volume (a.u.^3)      8772.8350
 PW_GRID: Grid span                                                    FULLSPACE

 PW_GRID: Information for grid number                                          9
 PW_GRID: Cutoff [a.u.]                                                     58.3
 PW_GRID: spherical cutoff:                                                   NO
 PW_GRID:   Bounds   1            -36      35                Points:          72
 PW_GRID:   Bounds   2            -36      35                Points:          72
 PW_GRID:   Bounds   3            -45      44                Points:          90
 PW_GRID: Volume element (a.u.^3)  0.1880E-01     Volume (a.u.^3)      8772.8350
 PW_GRID: Grid span                                                    FULLSPACE

 PW_GRID: Information for grid number                                         10
 PW_GRID: Cutoff [a.u.]                                                     19.4
 PW_GRID: spherical cutoff:                                                   NO
 PW_GRID:   Bounds   1            -20      19                Points:          40
 PW_GRID:   Bounds   2            -20      19                Points:          40
 PW_GRID:   Bounds   3            -27      26                Points:          54
 PW_GRID: Volume element (a.u.^3)  0.1015         Volume (a.u.^3)      8772.8350
 PW_GRID: Grid span                                                    FULLSPACE

 PW_GRID: Information for grid number                                         11
 PW_GRID: Cutoff [a.u.]                                                      6.5
 PW_GRID: spherical cutoff:                                                   NO
 PW_GRID:   Bounds   1            -12      11                Points:          24
 PW_GRID:   Bounds   2            -12      11                Points:          24
 PW_GRID:   Bounds   3            -15      14                Points:          30
 PW_GRID: Volume element (a.u.^3)  0.5077         Volume (a.u.^3)      8772.8350
 PW_GRID: Grid span                                                    FULLSPACE

 PW_GRID: Information for grid number                                         12
 PW_GRID: Cutoff [a.u.]                                                      2.2
 PW_GRID: spherical cutoff:                                                   NO
 PW_GRID:   Bounds   1             -7       7                Points:          15
 PW_GRID:   Bounds   2             -7       7                Points:          15
 PW_GRID:   Bounds   3             -9       8                Points:          18
 PW_GRID: Volume element (a.u.^3)   2.166         Volume (a.u.^3)      8772.8350
 PW_GRID: Grid span                                                    FULLSPACE

 RS_GRID: Information for grid number                                          8
 RS_GRID:   Bounds   1            -60      59                Points:         120
 RS_GRID:   Bounds   2            -60      59                Points:         120
 RS_GRID:   Bounds   3            -75      74                Points:         150

 RS_GRID: Information for grid number                                          9
 RS_GRID:   Bounds   1            -36      35                Points:          72
 RS_GRID:   Bounds   2            -36      35                Points:          72
 RS_GRID:   Bounds   3            -45      44                Points:          90

 RS_GRID: Information for grid number                                         10
 RS_GRID:   Bounds   1            -20      19                Points:          40
 RS_GRID:   Bounds   2            -20      19                Points:          40
 RS_GRID:   Bounds   3            -27      26                Points:          54

 RS_GRID: Information for grid number                                         11
 RS_GRID:   Bounds   1            -12      11                Points:          24
 RS_GRID:   Bounds   2            -12      11                Points:          24
 RS_GRID:   Bounds   3            -15      14                Points:          30

 RS_GRID: Information for grid number                                         12
 RS_GRID:   Bounds   1             -7       7                Points:          15
 RS_GRID:   Bounds   2             -7       7                Points:          15
 RS_GRID:   Bounds   3             -9       8                Points:          18

 DISTRIBUTION OF THE PARTICLES (ROWS)
              Process row      Number of particles         Number of matrix rows
                        0                        3                            -1
                      Sum                        3                            -1

 DISTRIBUTION OF THE PARTICLES (COLUMNS)
              Process col      Number of particles      Number of matrix columns
                        0                        3                            -1
                      Sum                        3                            -1

 DISTRIBUTION OF THE NEIGHBOR LISTS
              Total number of particle pairs:                                 39
              Total number of matrix elements:                             26364
              Average number of particle pairs:                               39
              Maximum number of particle pairs:                               39
              Average number of matrix element:                            26364
              Maximum number of matrix elements:                           26364


 DISTRIBUTION OF THE OVERLAP MATRIX
              Number  of non-zero blocks:                                      6
              Percentage non-zero blocks:                                 100.00
              Average number of blocks per CPU:                                6
              Maximum number of blocks per CPU:                                6
              Average number of matrix elements per CPU:                    4056
              Maximum number of matrix elements per CPU:                    4056

 Number of electrons:                                                         16
 Number of occupied orbitals:                                                  8
 Number of molecular orbitals:                                                 8

 Number of orbital functions:                                                 78
 Number of independent orbital functions:                                     78

 Extrapolation method: initial_guess

 *** 10:26:35 WARNING in qs_initial_guess:calculate_first_density_matrix    ***
 *** err=-300  User requested to restart the wavefunction from the file     ***
 *** named: temp-r-7-RESTART.wfn. This file does not exist. Please check    ***
 *** the existence of the file or change properly the value of the keyword  ***
 *** WFN_RESTART_FILE_NAME. Calculation continues using ATOMIC GUESS.       ***
 *** /usr/local/u/jmlarkin/CP2K/cp2k/makefiles/../src/qs_initial_guess.F    ***
 *** line    231                                                            ***

 Atomic guess: The first density matrix is obtained in terms of atomic orbitals
               and electronic configurations assigned to each atomic kind

 Guess for atomic kind: O

 Electronic structure
    Total number of core electrons                                          2.00
    Total number of valence electrons                                       6.00
    Total number of electrons                                               8.00
    Multiplicity                                                   not specified
    S   [  2.00] 2.00
    P      4.00
 

 *******************************************************************************
                  Iteration          Convergence                     Energy [au]
 *******************************************************************************
                          1         2.18546                     -14.421592257754
                          2         2.69278                     -13.555084223277
                          3        0.447857                     -15.582518344613
                          4        0.533362E-01                 -15.656339190379
                          5        0.343584E-02                 -15.657205503018
                          6        0.157467E-03                 -15.657209313096
                          7        0.668939E-06                 -15.657209321838

 Energy components [Hartree]           Total Energy ::          -15.657209321838
                                        Band Energy ::           -3.002498769363
                                     Kinetic Energy ::           11.774068762364
                                   Potential Energy ::          -27.431278084202
                                      Virial (-V/T) ::            2.329804474379
                                        Core Energy ::          -26.139244223055
                                          XC Energy ::           -3.153870619768
                                     Coulomb Energy ::           13.635905520985
                       Total Pseudopotential Energy ::          -37.948527599483
                       Local Pseudopotential Energy ::          -39.248895363653
                    Nonlocal Pseudopotential Energy ::            1.300367764171
                                        Confinement ::            0.352146140634

 Orbital energies  State     L     Occupation   Energy[a.u.]          Energy[eV]

                       1     0          2.000      -0.865035          -23.538787
                       2     0          0.000       0.148161            4.031658
                       3     0          0.000       1.268684           34.522651
                       4     0          0.000      15.043188          409.345953
 
                       1     1          4.000      -0.318107           -8.656143
                       2     1          0.000       0.229143            6.235300
                       3     1          0.000       1.076359           29.289206
                       4     1          0.000       4.260328          115.929412
 

 Guess for atomic kind: C

 Electronic structure
    Total number of core electrons                                          2.00
    Total number of valence electrons                                       4.00
    Total number of electrons                                               6.00
    Multiplicity                                                   not specified
    S   [  2.00] 2.00
    P      2.00
 

 *******************************************************************************
                  Iteration          Convergence                     Energy [au]
 *******************************************************************************
                          1        0.298189                      -5.146106674700
                          2        0.233825                      -5.202427473298
                          3        0.178756E-01                  -5.283543978370
                          4        0.570045E-03                  -5.284038237521
                          5        0.299436E-04                  -5.284038356028
                          6        0.163542E-06                  -5.284038357465

 Energy components [Hartree]           Total Energy ::           -5.284038357465
                                        Band Energy ::           -1.317146178102
                                     Kinetic Energy ::            3.390422048629
                                   Potential Energy ::           -8.674460406095
                                      Virial (-V/T) ::            2.558519347053
                                        Core Energy ::           -8.295784343766
                                          XC Energy ::           -1.377306946079
                                     Coulomb Energy ::            4.389052932380
                       Total Pseudopotential Energy ::          -11.720389813560
                       Local Pseudopotential Energy ::          -12.366572543168
                    Nonlocal Pseudopotential Energy ::            0.646182729609
                                        Confinement ::            0.341834211642

 Orbital energies  State     L     Occupation   Energy[a.u.]          Energy[eV]

                       1     0          2.000      -0.484432          -13.182076
                       2     0          0.000       0.102012            2.775900
                       3     0          0.000       0.691171           18.807710
                       4     0          0.000       8.065504          219.473523
 
                       1     1          2.000      -0.174141           -4.738609
                       2     1          0.000       0.160398            4.364645
                       3     1          0.000       0.605105           16.465744
                       4     1          0.000       2.314792           62.988684
 
 Re-scaling the density matrix to get the right number of electrons
                  # Electrons              Trace(P)               Scaling factor
                           16                16.000                        1.000


 SCF WAVEFUNCTION OPTIMIZATION

  ----------------------------------- OT ---------------------------------------

  Allowing for rotations:  F
  Optimizing orbital energies:  F
  Minimizer      : DIIS                : direct inversion
                                         in the iterative subspace
                            using      : -   7 DIIS vectors
                                         - safer DIIS on
  Preconditioner : FULL_ALL            : diagonalization, state selective
  Precond_solver : DEFAULT
  stepsize       :    0.15000000
  energy_gap     :    0.00100000

  eps_taylor     :   0.10000E-15
  max_taylor     :             4

  mixed_precision    : F

  ----------------------------------- OT ---------------------------------------

  Step     Update method      Time    Convergence         Total energy    Change
  ------------------------------------------------------------------------------

  Electronic density on regular grids:        -16.0000000127       -0.0000000127
  Core density on regular grids:               16.0000000000        0.0000000000
  Total charge density on r-space grids:       -0.0000000127
  Total charge density g-space grids:          -0.0000000127

     1 OT DIIS     0.15E+00    5.8     0.16208137       -36.1544161322 -3.62E+01

  Electronic density on regular grids:        -16.0000000121       -0.0000000121
  Core density on regular grids:               16.0000000000        0.0000000000
  Total charge density on r-space grids:       -0.0000000121
  Total charge density g-space grids:          -0.0000000121

     2 OT DIIS     0.15E+00    4.3     0.43301218       -35.4143296645  7.40E-01

  Electronic density on regular grids:        -16.0000000169       -0.0000000169
  Core density on regular grids:               16.0000000000        0.0000000000
  Total charge density on r-space grids:       -0.0000000169
  Total charge density g-space grids:          -0.0000000169

     3 OT DIIS     0.15E+00    4.0     0.12737518       -36.9910610415 -1.58E+00

  Electronic density on regular grids:        -16.0000000115       -0.0000000115
  Core density on regular grids:               16.0000000000        0.0000000000
  Total charge density on r-space grids:       -0.0000000115
  Total charge density g-space grids:          -0.0000000115

     4 OT DIIS     0.15E+00    4.0     0.08050851       -37.3946008257 -4.04E-01

  Electronic density on regular grids:        -16.0000000120       -0.0000000120
  Core density on regular grids:               16.0000000000        0.0000000000
  Total charge density on r-space grids:       -0.0000000120
  Total charge density g-space grids:          -0.0000000120

     5 OT DIIS     0.15E+00    4.0     0.05424896       -37.6031611505 -2.09E-01

  Electronic density on regular grids:        -16.0000000100       -0.0000000100
  Core density on regular grids:               16.0000000000        0.0000000000
  Total charge density on r-space grids:       -0.0000000100
  Total charge density g-space grids:          -0.0000000100

     6 OT DIIS     0.15E+00    4.0     0.06126865       -37.6895918723 -8.64E-02

  Electronic density on regular grids:        -16.0000000103       -0.0000000103
  Core density on regular grids:               16.0000000000        0.0000000000
  Total charge density on r-space grids:       -0.0000000103
  Total charge density g-space grids:          -0.0000000103

     7 OT DIIS     0.15E+00    4.0     0.05702673       -37.6890413744  5.50E-04

  Electronic density on regular grids:        -16.0000000088       -0.0000000088
  Core density on regular grids:               16.0000000000        0.0000000000
  Total charge density on r-space grids:       -0.0000000088
  Total charge density g-space grids:          -0.0000000088

     8 OT DIIS     0.15E+00    3.9     0.01420491       -37.7580040680 -6.90E-02

  Electronic density on regular grids:        -16.0000000091       -0.0000000091
  Core density on regular grids:               16.0000000000        0.0000000000
  Total charge density on r-space grids:       -0.0000000091
  Total charge density g-space grids:          -0.0000000091

     9 OT DIIS     0.15E+00    3.9     0.00937726       -37.7638854340 -5.88E-03

  Electronic density on regular grids:        -16.0000000091       -0.0000000091
  Core density on regular grids:               16.0000000000        0.0000000000
  Total charge density on r-space grids:       -0.0000000091
  Total charge density g-space grids:          -0.0000000091

    10 OT DIIS     0.15E+00    3.9     0.00607018       -37.7659244515 -2.04E-03

  Electronic density on regular grids:        -16.0000000093       -0.0000000093
  Core density on regular grids:               16.0000000000        0.0000000000
  Total charge density on r-space grids:       -0.0000000093
  Total charge density g-space grids:          -0.0000000093

    11 OT DIIS     0.15E+00    3.9     0.00383256       -37.7665220634 -5.98E-04

  Electronic density on regular grids:        -16.0000000093       -0.0000000093
  Core density on regular grids:               16.0000000000        0.0000000000
  Total charge density on r-space grids:       -0.0000000093
  Total charge density g-space grids:          -0.0000000093

    12 OT DIIS     0.15E+00    3.9     0.00161752       -37.7669693127 -4.47E-04

  Electronic density on regular grids:        -16.0000000093       -0.0000000093
  Core density on regular grids:               16.0000000000        0.0000000000
  Total charge density on r-space grids:       -0.0000000093
  Total charge density g-space grids:          -0.0000000093

    13 OT DIIS     0.15E+00    3.9     0.00093247       -37.7671319428 -1.63E-04

  Electronic density on regular grids:        -16.0000000093       -0.0000000093
  Core density on regular grids:               16.0000000000        0.0000000000
  Total charge density on r-space grids:       -0.0000000093
  Total charge density g-space grids:          -0.0000000093

    14 OT DIIS     0.15E+00    3.9     0.00049878       -37.7671739354 -4.20E-05

  Electronic density on regular grids:        -16.0000000093       -0.0000000093
  Core density on regular grids:               16.0000000000        0.0000000000
  Total charge density on r-space grids:       -0.0000000093
  Total charge density g-space grids:          -0.0000000093

    15 OT DIIS     0.15E+00    4.0     0.00048143       -37.7671843293 -1.04E-05

  Electronic density on regular grids:        -16.0000000093       -0.0000000093
  Core density on regular grids:               16.0000000000        0.0000000000
  Total charge density on r-space grids:       -0.0000000093
  Total charge density g-space grids:          -0.0000000093

    16 OT DIIS     0.15E+00    4.1     0.00028584       -37.7671901141 -5.78E-06

  Electronic density on regular grids:        -16.0000000093       -0.0000000093
  Core density on regular grids:               16.0000000000        0.0000000000
  Total charge density on r-space grids:       -0.0000000093
  Total charge density g-space grids:          -0.0000000093

    17 OT DIIS     0.15E+00    4.0     0.00013642       -37.7671922512 -2.14E-06

  Electronic density on regular grids:        -16.0000000093       -0.0000000093
  Core density on regular grids:               16.0000000000        0.0000000000
  Total charge density on r-space grids:       -0.0000000093
  Total charge density g-space grids:          -0.0000000093

    18 OT DIIS     0.15E+00    4.0     0.00013838       -37.7671931529 -9.02E-07

  Electronic density on regular grids:        -16.0000000093       -0.0000000093
  Core density on regular grids:               16.0000000000        0.0000000000
  Total charge density on r-space grids:       -0.0000000093
  Total charge density g-space grids:          -0.0000000093

    19 OT DIIS     0.15E+00    3.9     0.00010521       -37.7671933852 -2.32E-07

  Electronic density on regular grids:        -16.0000000093       -0.0000000093
  Core density on regular grids:               16.0000000000        0.0000000000
  Total charge density on r-space grids:       -0.0000000093
  Total charge density g-space grids:          -0.0000000093

    20 OT DIIS     0.15E+00    4.0     0.00005039       -37.7671935479 -1.63E-07

  Electronic density on regular grids:        -16.0000000093       -0.0000000093
  Core density on regular grids:               16.0000000000        0.0000000000
  Total charge density on r-space grids:       -0.0000000093
  Total charge density g-space grids:          -0.0000000093

    21 OT DIIS     0.15E+00    4.0     0.00002629       -37.7671936295 -8.16E-08

  Electronic density on regular grids:        -16.0000000093       -0.0000000093
  Core density on regular grids:               16.0000000000        0.0000000000
  Total charge density on r-space grids:       -0.0000000093
  Total charge density g-space grids:          -0.0000000093

    22 OT DIIS     0.15E+00    4.0     0.00001881       -37.7671936591 -2.95E-08

  Electronic density on regular grids:        -16.0000000093       -0.0000000093
  Core density on regular grids:               16.0000000000        0.0000000000
  Total charge density on r-space grids:       -0.0000000093
  Total charge density g-space grids:          -0.0000000093

    23 OT DIIS     0.15E+00    3.9     0.00001597       -37.7671936738 -1.48E-08

  Electronic density on regular grids:        -16.0000000093       -0.0000000093
  Core density on regular grids:               16.0000000000        0.0000000000
  Total charge density on r-space grids:       -0.0000000093
  Total charge density g-space grids:          -0.0000000093

    24 OT DIIS     0.15E+00    3.8     0.00001279       -37.7671936800 -6.17E-09

  Electronic density on regular grids:        -16.0000000093       -0.0000000093
  Core density on regular grids:               16.0000000000        0.0000000000
  Total charge density on r-space grids:       -0.0000000093
  Total charge density g-space grids:          -0.0000000093

    25 OT DIIS     0.15E+00    3.9     0.00000664       -37.7671936834 -3.44E-09

  Electronic density on regular grids:        -16.0000000093       -0.0000000093
  Core density on regular grids:               16.0000000000        0.0000000000
  Total charge density on r-space grids:       -0.0000000093
  Total charge density g-space grids:          -0.0000000093

    26 OT DIIS     0.15E+00    3.8     0.00000546       -37.7671936854 -2.01E-09

  Electronic density on regular grids:        -16.0000000093       -0.0000000093
  Core density on regular grids:               16.0000000000        0.0000000000
  Total charge density on r-space grids:       -0.0000000093
  Total charge density g-space grids:          -0.0000000093

    27 OT DIIS     0.15E+00    3.8     0.00000617       -37.7671936861 -6.25E-10

  Electronic density on regular grids:        -16.0000000093       -0.0000000093
  Core density on regular grids:               16.0000000000        0.0000000000
  Total charge density on r-space grids:       -0.0000000093
  Total charge density g-space grids:          -0.0000000093

    28 OT DIIS     0.15E+00    3.8     0.00000371       -37.7671936867 -6.39E-10

  Electronic density on regular grids:        -16.0000000093       -0.0000000093
  Core density on regular grids:               16.0000000000        0.0000000000
  Total charge density on r-space grids:       -0.0000000093
  Total charge density g-space grids:          -0.0000000093

    29 OT DIIS     0.15E+00    3.8     0.00000194       -37.7671936871 -3.60E-10

  Electronic density on regular grids:        -16.0000000093       -0.0000000093
  Core density on regular grids:               16.0000000000        0.0000000000
  Total charge density on r-space grids:       -0.0000000093
  Total charge density g-space grids:          -0.0000000093

    30 OT DIIS     0.15E+00    3.8     0.00000131       -37.7671936872 -1.67E-10

  *** SCF run NOT converged ***


  Electronic density on regular grids:        -16.0000000093       -0.0000000093
  Core density on regular grids:               16.0000000000        0.0000000000
  Total charge density on r-space grids:       -0.0000000093
  Total charge density g-space grids:          -0.0000000093

  Overlap energy of the core charge distribution:               0.00000274912557
  Self energy of the core charge distribution:                -96.38742208476296
  Core Hamiltonian energy:                                     27.75457452034974
  Hartree energy:                                              39.53362420323909
  Exchange-correlation energy:                                 -8.66787851117652
  Dispersion energy:                                           -0.00009456401155

  Total energy:                                               -37.76719368723663

  outer SCF iter =    1 RMS gradient =   0.13E-05 energy =        -37.7671936872

  ----------------------------------- OT ---------------------------------------

  Allowing for rotations:  F
  Optimizing orbital energies:  F
  Minimizer      : DIIS                : direct inversion
                                         in the iterative subspace
                            using      : -   7 DIIS vectors
                                         - safer DIIS on
  Preconditioner : FULL_ALL            : diagonalization, state selective
  Precond_solver : DEFAULT
  stepsize       :    0.15000000
  energy_gap     :    0.00100000

  eps_taylor     :   0.10000E-15
  max_taylor     :             4

  mixed_precision    : F

  ----------------------------------- OT ---------------------------------------

  Step     Update method      Time    Convergence         Total energy    Change
  ------------------------------------------------------------------------------

  Electronic density on regular grids:        -16.0000000093       -0.0000000093
  Core density on regular grids:               16.0000000000        0.0000000000
  Total charge density on r-space grids:       -0.0000000093
  Total charge density g-space grids:          -0.0000000093

     1 OT DIIS     0.15E+00    7.7     0.00000103       -37.7671936873 -8.36E-11

  Electronic density on regular grids:        -16.0000000093       -0.0000000093
  Core density on regular grids:               16.0000000000        0.0000000000
  Total charge density on r-space grids:       -0.0000000093
  Total charge density g-space grids:          -0.0000000093

     2 OT DIIS     0.15E+00    3.6     0.00000047       -37.7671936874 -7.05E-11

  *** SCF run converged in     2 steps ***


  Electronic density on regular grids:        -16.0000000093       -0.0000000093
  Core density on regular grids:               16.0000000000        0.0000000000
  Total charge density on r-space grids:       -0.0000000093
  Total charge density g-space grids:          -0.0000000093

  Overlap energy of the core charge distribution:               0.00000274912557
  Self energy of the core charge distribution:                -96.38742208476296
  Core Hamiltonian energy:                                     27.75457201331632
  Hartree energy:                                              39.53362637399110
  Exchange-correlation energy:                                 -8.66787817504924
  Dispersion energy:                                           -0.00009456401155

  Total energy:                                               -37.76719368739075

  outer SCF iter =    2 RMS gradient =   0.47E-06 energy =        -37.7671936874
  outer SCF loop converged in   2 iterations or   32 steps



 MULLIKEN POPULATION ANALYSIS

 # Atom  Element  Kind  Atomic population                Net charge
      1     O        1           6.304135                 -0.304135
      2     O        1           6.304139                 -0.304139
      3     C        2           3.391725                  0.608275
 # Total charge                 16.000000                  0.000000


 MOMENTS
  The electric moments are written to file:
  /usr/local/u/jmlarkin/CP2K/CdSe/vib/./MOMENTS-moments.dat


 LOCALIZE| The spread relative to a set of orbitals is computed
 LOCALIZE| Orbitals to be localized: All the occupied
 LOCALIZE| If fractional occupation, fully occupied MOs are those within occupation tolerance of       0.00000100
 LOCALIZE| Spread defined by the Berry phase operator 
 LOCALIZE| The optimal unitary transformation is generated by the Crazy angle algorithm
 LOCALIZE| maximum angle:       0.05000000
 LOCALIZE| scaling:       1.00000000
 LOCALIZE| use diag:F
  
  Eigenvalues of the occupied subspace spin            1
 ---------------------------------------------
      -1.07539481     -1.03872105     -0.50795738     -0.46709720
      -0.46709681     -0.46671932     -0.33407504     -0.33407320
 Fermi Energy [eV] :   -9.090594

 LOCALIZATION| Computing localization properties for OCCUPIED ORBITALS. Spin:  1
          Spread Functional     sum_in -w_i ln(|z_in|^2)    sum_in w_i(1-|z_in|^2)
    Initial Spread (Berry) :                  48.8798425971       42.3573383705
 CRAZY|   Iter            value        gradient   Max. eval       limit
 CRAZY|      1 664.509387425000      0.3994E+02  0.2318E+00  0.5000E-01
 CRAZY|      2 659.061978466815      0.4034E+02  0.1749E+00  0.5000E-01
 CRAZY|      3 653.090442390841      0.3755E+02  0.1534E+00  0.5000E-01
 CRAZY|      4 646.406450176605      0.3172E+02  0.1527E+00  0.5000E-01
 CRAZY|      5 639.758076211614      0.3697E+02  0.1527E+00  0.5000E-01
 CRAZY|      6 633.851607769925      0.4011E+02  0.1520E+00  0.5000E-01
 CRAZY|      7 629.167113652418      0.4048E+02  0.1517E+00  0.5000E-01
 CRAZY|      8 626.101009297592      0.3898E+02  0.1516E+00  0.5000E-01
 CRAZY|      9 623.751141868247      0.3867E+02  0.1522E+00  0.5000E-01
 CRAZY|     10 621.716184591360      0.3657E+02  0.9388E-01  0.5000E-01
 CRAZY|     11 619.835174718229      0.3348E+02  0.8751E-01  0.5000E-01
 CRAZY|     12 618.142878959617      0.2938E+02  0.9417E-01  0.5000E-01
 CRAZY|     13 616.690800877621      0.2427E+02  0.8911E-01  0.5000E-01
 CRAZY|     14 615.511619933951      0.1848E+02  0.9123E-01  0.5000E-01
 CRAZY|     15 614.638296694709      0.1214E+02  0.8983E-01  0.5000E-01
 CRAZY|     16 614.087730363394      0.5543E+01  0.9050E-01  0.5000E-01
 CRAZY|     17 613.880488667442      0.2470E+01  0.7050E-01  0.5000E-01
 CRAZY|     18 613.827223882615      0.1388E+01  0.3702E-01  0.5000E-01
 CRAZY|     19 613.813473731357      0.6105E+00  0.1824E-01  0.5000E-01
 CRAZY|     20 613.809937290156      0.3600E+00  0.9825E-02  0.5000E-01
 CRAZY|     21 613.809023840127      0.1508E+00  0.4529E-02  0.5000E-01
 CRAZY|     22 613.808787219113      0.9576E-01  0.2660E-02  0.5000E-01
 CRAZY|     23 613.808725274472      0.3618E-01  0.1069E-02  0.5000E-01
 CRAZY|     24 613.808708731303      0.2643E-01  0.7556E-03  0.5000E-01
 CRAZY|     25 613.808704110896      0.1025E-01  0.4010E-03  0.5000E-01
 CRAZY|     26 613.808702703289      0.7770E-02  0.3178E-03  0.5000E-01
 CRAZY|     27 613.808702206557      0.6257E-02  0.2487E-03  0.5000E-01
 CRAZY|     28 613.808701994865      0.4274E-02  0.1964E-03  0.5000E-01
 CRAZY|     29 613.808701886871      0.3900E-02  0.1541E-03  0.5000E-01
 CRAZY|     30 613.808701824037      0.2542E-02  0.1216E-03  0.5000E-01
 CRAZY|     31 613.808701784034      0.2483E-02  0.9536E-04  0.5000E-01
 CRAZY|     32 613.808701756770      0.1525E-02  0.7524E-04  0.5000E-01
 CRAZY|     33 613.808701736972      0.1623E-02  0.5895E-04  0.5000E-01
 CRAZY|     34 613.808701721661      0.1047E-02  0.4655E-04  0.5000E-01
 CRAZY|     35 613.808701709081      0.1097E-02  0.3640E-04  0.5000E-01
 CRAZY|     36 613.808701698170      0.7478E-03  0.2880E-04  0.5000E-01
 CRAZY|     37 613.808701688284      0.7750E-03  0.2245E-04  0.5000E-01
 CRAZY|     38 613.808701679023      0.5612E-03  0.1782E-04  0.5000E-01
 CRAZY|     39 613.808701670152      0.5773E-03  0.1551E-04  0.5000E-01
 CRAZY|     40 613.808701661519      0.4452E-03  0.1333E-04  0.5000E-01
 CRAZY|     41 613.808701653033      0.4557E-03  0.1270E-04  0.5000E-01
 CRAZY|     42 613.808701644632      0.3731E-03  0.1141E-04  0.5000E-01
 CRAZY|     43 613.808701636288      0.3809E-03  0.1099E-04  0.5000E-01
 CRAZY|     44 613.808701627977      0.3387E-03  0.1099E-04  0.5000E-01
 CRAZY|     45 613.808701619687      0.3377E-03  0.1082E-04  0.5000E-01
 CRAZY|     46 613.808701611412      0.3332E-03  0.1089E-04  0.5000E-01
 CRAZY|     47 613.808701603146      0.3321E-03  0.1079E-04  0.5000E-01
 CRAZY|     48 613.808701594883      0.3297E-03  0.1083E-04  0.5000E-01
 CRAZY|     49 613.808701586622      0.3288E-03  0.1078E-04  0.5000E-01
 CRAZY|     50 613.808701578367      0.3276E-03  0.1080E-04  0.5000E-01
 CRAZY|     51 613.808701570107      0.3268E-03  0.1077E-04  0.5000E-01
 CRAZY|     52 613.808701561849      0.3263E-03  0.1078E-04  0.5000E-01
 CRAZY|     53 613.808701553592      0.3256E-03  0.1076E-04  0.5000E-01
 CRAZY|     54 613.808701545334      0.3255E-03  0.1077E-04  0.5000E-01
 CRAZY|     55 613.808701537076      0.3249E-03  0.1076E-04  0.5000E-01
 CRAZY|     56 613.808701528820      0.3250E-03  0.1076E-04  0.5000E-01
 CRAZY|     57 613.808701520563      0.3245E-03  0.1075E-04  0.5000E-01
 CRAZY|     58 613.808701512306      0.3247E-03  0.1076E-04  0.5000E-01
 CRAZY|     59 613.808701504050      0.3243E-03  0.1075E-04  0.5000E-01
 CRAZY|     60 613.808701495791      0.3246E-03  0.1076E-04  0.5000E-01
 CRAZY|     61 613.808701487535      0.3241E-03  0.1075E-04  0.5000E-01
 CRAZY|     62 613.808701479277      0.3245E-03  0.1076E-04  0.5000E-01
 CRAZY|     63 613.808701471020      0.3242E-03  0.1075E-04  0.5000E-01
 CRAZY|     64 613.808701462764      0.3244E-03  0.1076E-04  0.5000E-01
 CRAZY|     65 613.808701454506      0.3242E-03  0.1075E-04  0.5000E-01
 CRAZY|     66 613.808701446248      0.3244E-03  0.1076E-04  0.5000E-01
 CRAZY|     67 613.808701437990      0.3243E-03  0.1075E-04  0.5000E-01
 CRAZY|     68 613.808701429732      0.3244E-03  0.1076E-04  0.5000E-01
 CRAZY|     69 613.808701421471      0.3243E-03  0.1076E-04  0.5000E-01
 CRAZY|     70 613.808701413212      0.3244E-03  0.1076E-04  0.5000E-01
 CRAZY|     71 613.808701404952      0.3243E-03  0.1076E-04  0.5000E-01
 CRAZY|     72 613.808701396693      0.3244E-03  0.1076E-04  0.5000E-01
 CRAZY|     73 613.808701388433      0.3244E-03  0.1076E-04  0.5000E-01
 CRAZY|     74 613.808701380173      0.3244E-03  0.1076E-04  0.5000E-01
 CRAZY|     75 613.808701371912      0.3244E-03  0.1076E-04  0.5000E-01
 CRAZY|     76 613.808701363652      0.3244E-03  0.1076E-04  0.5000E-01
 CRAZY|     77 613.808701355391      0.3244E-03  0.1076E-04  0.5000E-01
 CRAZY|     78 613.808701347129      0.3244E-03  0.1076E-04  0.5000E-01
 CRAZY|     79 613.808701338870      0.3244E-03  0.1076E-04  0.5000E-01
 CRAZY|     80 613.808701330609      0.3244E-03  0.1076E-04  0.5000E-01
 CRAZY|     81 613.808701322349      0.3244E-03  0.1076E-04  0.5000E-01
 CRAZY|     82 613.808701314086      0.3244E-03  0.1076E-04  0.5000E-01
 CRAZY|     83 613.808701305826      0.3244E-03  0.1076E-04  0.5000E-01
 CRAZY|     84 613.808701297564      0.3245E-03  0.1076E-04  0.5000E-01
 CRAZY|     85 613.808701289301      0.3245E-03  0.1076E-04  0.5000E-01
 CRAZY|     86 613.808701281039      0.3245E-03  0.1076E-04  0.5000E-01
 CRAZY|     87 613.808701272777      0.3245E-03  0.1076E-04  0.5000E-01
 CRAZY|     88 613.808701264514      0.3245E-03  0.1076E-04  0.5000E-01
 CRAZY|     89 613.808701256252      0.3245E-03  0.1076E-04  0.5000E-01
 CRAZY|     90 613.808701247988      0.3245E-03  0.1076E-04  0.5000E-01
 CRAZY|     91 613.808701239726      0.3245E-03  0.1076E-04  0.5000E-01
 CRAZY|     92 613.808701231463      0.3245E-03  0.1076E-04  0.5000E-01
 CRAZY|     93 613.808701223199      0.3245E-03  0.1076E-04  0.5000E-01
 CRAZY|     94 613.808701214936      0.3245E-03  0.1076E-04  0.5000E-01
 CRAZY|     95 613.808701206672      0.3245E-03  0.1076E-04  0.5000E-01
 CRAZY|     96 613.808701198409      0.3245E-03  0.1076E-04  0.5000E-01
 CRAZY|     97 613.808701190144      0.3245E-03  0.1076E-04  0.5000E-01
 CRAZY|     98 613.808701181882      0.3246E-03  0.1076E-04  0.5000E-01
 CRAZY|     99 613.808701173618      0.3246E-03  0.1076E-04  0.5000E-01
 CRAZY|    100 613.808701165353      0.3246E-03  0.1076E-04  0.5000E-01
 CRAZY|    101 613.808701157087      0.3246E-03  0.1076E-04  0.5000E-01
 CRAZY|    102 613.808701148820      0.3246E-03  0.1076E-04  0.5000E-01
 CRAZY|    103 613.808701140554      0.3246E-03  0.1076E-04  0.5000E-01
 CRAZY|    104 613.808701132288      0.3246E-03  0.1076E-04  0.5000E-01
 CRAZY|    105 613.808701124022      0.3246E-03  0.1076E-04  0.5000E-01
 CRAZY|    106 613.808701115755      0.3246E-03  0.1076E-04  0.5000E-01
 CRAZY|    107 613.808701107489      0.3246E-03  0.1076E-04  0.5000E-01
 CRAZY|    108 613.808701099223      0.3246E-03  0.1076E-04  0.5000E-01
 CRAZY|    109 613.808701090954      0.3246E-03  0.1076E-04  0.5000E-01
 CRAZY|    110 613.808701082686      0.3246E-03  0.1076E-04  0.5000E-01
 CRAZY|    111 613.808701074420      0.3246E-03  0.1076E-04  0.5000E-01
 CRAZY|    112 613.808701066152      0.3246E-03  0.1077E-04  0.5000E-01
 CRAZY|    113 613.808701057886      0.3247E-03  0.1077E-04  0.5000E-01
 CRAZY|    114 613.808701049620      0.3247E-03  0.1077E-04  0.5000E-01
 CRAZY|    115 613.808701041352      0.3247E-03  0.1077E-04  0.5000E-01
 CRAZY|    116 613.808701033083      0.3247E-03  0.1077E-04  0.5000E-01
 CRAZY|    117 613.808701024816      0.3247E-03  0.1077E-04  0.5000E-01
 CRAZY|    118 613.808701016548      0.3247E-03  0.1077E-04  0.5000E-01
 CRAZY|    119 613.808701008278      0.3247E-03  0.1077E-04  0.5000E-01
 CRAZY|    120 613.808701000010      0.3247E-03  0.1077E-04  0.5000E-01
 CRAZY|    121 613.808700991739      0.3247E-03  0.1077E-04  0.5000E-01
 CRAZY|    122 613.808700983471      0.3247E-03  0.1077E-04  0.5000E-01
 CRAZY|    123 613.808700975202      0.3247E-03  0.1077E-04  0.5000E-01
 CRAZY|    124 613.808700966932      0.3247E-03  0.1077E-04  0.5000E-01
 CRAZY|    125 613.808700958662      0.3247E-03  0.1077E-04  0.5000E-01
 CRAZY|    126 613.808700950390      0.3247E-03  0.1077E-04  0.5000E-01
 CRAZY|    127 613.808700942122      0.3248E-03  0.1077E-04  0.5000E-01
 CRAZY|    128 613.808700933852      0.3248E-03  0.1077E-04  0.5000E-01
 CRAZY|    129 613.808700925581      0.3248E-03  0.1077E-04  0.5000E-01
 CRAZY|    130 613.808700917311      0.3248E-03  0.1077E-04  0.5000E-01
 CRAZY|    131 613.808700909039      0.3248E-03  0.1077E-04  0.5000E-01
 CRAZY|    132 613.808700900768      0.3248E-03  0.1077E-04  0.5000E-01
 CRAZY|    133 613.808700892496      0.3248E-03  0.1077E-04  0.5000E-01
 CRAZY|    134 613.808700884224      0.3248E-03  0.1077E-04  0.5000E-01
 CRAZY|    135 613.808700875954      0.3248E-03  0.1077E-04  0.5000E-01
 CRAZY|    136 613.808700867683      0.3248E-03  0.1077E-04  0.5000E-01
 CRAZY|    137 613.808700859411      0.3248E-03  0.1077E-04  0.5000E-01
 CRAZY|    138 613.808700851136      0.3248E-03  0.1077E-04  0.5000E-01
[...]
 CRAZY|   1857 613.802043320860      0.1630E-03  0.5368E-05  0.5000E-01
 CRAZY|   1858 613.802043319450      0.1630E-03  0.5368E-05  0.5000E-01
 CRAZY|   1859 613.802043318043      0.1630E-03  0.5368E-05  0.5000E-01
 CRAZY|   1860 613.802043316635      0.1630E-03  0.5368E-05  0.5000E-01
 CRAZY|   1861 613.802043315228      0.1630E-03  0.5368E-05  0.5000E-01
 CRAZY|   1862 613.802043313818      0.1630E-03  0.5368E-05  0.5000E-01
 CRAZY|   1863 613.802043312409      0.1630E-03  0.5368E-05  0.5000E-01
 CRAZY|   1864 613.802043310998      0.1630E-03  0.5368E-05  0.5000E-01
 CRAZY|   1865 613.802043309588      0.1630E-03  0.5368E-05  0.5000E-01
 CRAZY|   1866 613.802043308179      0.1630E-03  0.5368E-05  0.5000E-01
 CRAZY|   1867 613.802043306768      0.1630E-03  0.5368E-05  0.5000E-01
 CRAZY|   1868 613.802043305359      0.1630E-03  0.5369E-05  0.5000E-01
 CRAZY|   1869 613.802043303949      0.1630E-03  0.5369E-05  0.5000E-01
 CRAZY|   1870 613.802043302539      0.1630E-03  0.5369E-05  0.5000E-01
 CRAZY|   1871 613.802043301130      0.1630E-03  0.5369E-05  0.5000E-01
 CRAZY|   1872 613.802043299720      0.1630E-03  0.5369E-05  0.5000E-01
 CRAZY|   1873 613.802043298311      0.1630E-03  0.5369E-05  0.5000E-01
 CRAZY|   1874 613.802043296902      0.1630E-03  0.5369E-05  0.5000E-01
 CRAZY|   1875 613.802043295492      0.1630E-03  0.5369E-05  0.5000E-01
 CRAZY|   1876 613.802043294082      0.1630E-03  0.5369E-05  0.5000E-01
 CRAZY|   1877 613.802043292672      0.1630E-03  0.5369E-05  0.5000E-01
 CRAZY|   1878 613.802043291261      0.1630E-03  0.5369E-05  0.5000E-01
 CRAZY|   1879 613.802043289852      0.1630E-03  0.5369E-05  0.5000E-01
 CRAZY|   1880 613.802043288441      0.1630E-03  0.5369E-05  0.5000E-01
 CRAZY|   1881 613.802043287031      0.1630E-03  0.5369E-05  0.5000E-01
 CRAZY|   1882 613.802043285620      0.1630E-03  0.5369E-05  0.5000E-01
 CRAZY|   1883 613.802043284210      0.1630E-03  0.5369E-05  0.5000E-01
 CRAZY|   1884 613.802043282799      0.1630E-03  0.5369E-05  0.5000E-01
 CRAZY|   1885 613.802043281390      0.1630E-03  0.5369E-05  0.5000E-01
 CRAZY|   1886 613.802043279981      0.1630E-03  0.5369E-05  0.5000E-01
 CRAZY|   1887 613.802043278572      0.1630E-03  0.5369E-05  0.5000E-01
 CRAZY|   1888 613.802043277160      0.1630E-03  0.5369E-05  0.5000E-01
 CRAZY|   1889 613.802043275751      0.1630E-03  0.5369E-05  0.5000E-01
 CRAZY|   1890 613.802043274337      0.1630E-03  0.5369E-05  0.5000E-01
 CRAZY|   1891 613.802043272927      0.1630E-03  0.5370E-05  0.5000E-01
 CRAZY|   1892 613.802043271514      0.1630E-03  0.5370E-05  0.5000E-01
 CRAZY|   1893 613.802043270106      0.1630E-03  0.5370E-05  0.5000E-01
 CRAZY|   1894 613.802043268696      0.1630E-03  0.5370E-05  0.5000E-01
 CRAZY|   1895 613.802043267284      0.1630E-03  0.5370E-05  0.5000E-01
 CRAZY|   1896 613.802043265874      0.1630E-03  0.5370E-05  0.5000E-01
 CRAZY|   1897 613.802043264463      0.1630E-03  0.5370E-05  0.5000E-01
 CRAZY|   1898 613.802043263052      0.1630E-03  0.5370E-05  0.5000E-01
 CRAZY|   1899 613.802043261640      0.1630E-03  0.5370E-05  0.5000E-01
 CRAZY|   1900 613.802043260228      0.1630E-03  0.5370E-05  0.5000E-01
 CRAZY|   1901 613.802043258817      0.1630E-03  0.5370E-05  0.5000E-01
 CRAZY|   1902 613.802043257407      0.1630E-03  0.5370E-05  0.5000E-01
 CRAZY|   1903 613.802043255997      0.1630E-03  0.5370E-05  0.5000E-01
 CRAZY|   1904 613.802043254587      0.1630E-03  0.5370E-05  0.5000E-01
 CRAZY|   1905 613.802043253175      0.1630E-03  0.5370E-05  0.5000E-01
 CRAZY|   1906 613.802043251764      0.1630E-03  0.5370E-05  0.5000E-01
 CRAZY|   1907 613.802043250352      0.1630E-03  0.5370E-05  0.5000E-01
 CRAZY|   1908 613.802043248942      0.1630E-03  0.5370E-05  0.5000E-01
 CRAZY|   1909 613.802043247531      0.1630E-03  0.5370E-05  0.5000E-01
 CRAZY|   1910 613.802043246119      0.1630E-03  0.5370E-05  0.5000E-01
 CRAZY|   1911 613.802043244706      0.1630E-03  0.5370E-05  0.5000E-01
 CRAZY|   1912 613.802043243295      0.1630E-03  0.5370E-05  0.5000E-01
 CRAZY|   1913 613.802043241882      0.1630E-03  0.5370E-05  0.5000E-01
 CRAZY|   1914 613.802043240469      0.1630E-03  0.5371E-05  0.5000E-01
 CRAZY|   1915 613.802043239057      0.1630E-03  0.5371E-05  0.5000E-01
 CRAZY|   1916 613.802043237646      0.1631E-03  0.5371E-05  0.5000E-01
 CRAZY|   1917 613.802043236235      0.1631E-03  0.5371E-05  0.5000E-01
 CRAZY|   1918 613.802043234825      0.1631E-03  0.5371E-05  0.5000E-01
 CRAZY|   1919 613.802043233413      0.1631E-03  0.5371E-05  0.5000E-01
 CRAZY|   1920 613.802043232001      0.1631E-03  0.5371E-05  0.5000E-01
 CRAZY|   1921 613.802043230590      0.1631E-03  0.5371E-05  0.5000E-01
 CRAZY|   1922 613.802043229178      0.1631E-03  0.5371E-05  0.5000E-01
 CRAZY|   1923 613.802043227767      0.1631E-03  0.5371E-05  0.5000E-01
 CRAZY|   1924 613.802043226357      0.1631E-03  0.5371E-05  0.5000E-01
 CRAZY|   1925 613.802043224945      0.1631E-03  0.5371E-05  0.5000E-01
 CRAZY|   1926 613.802043223535      0.1631E-03  0.5371E-05  0.5000E-01
 CRAZY|   1927 613.802043222122      0.1631E-03  0.5371E-05  0.5000E-01
 CRAZY|   1928 613.802043220709      0.1631E-03  0.5371E-05  0.5000E-01
 CRAZY|   1929 613.802043219296      0.1631E-03  0.5371E-05  0.5000E-01
 CRAZY|   1930 613.802043217885      0.1631E-03  0.5371E-05  0.5000E-01
 CRAZY|   1931 613.802043216472      0.1631E-03  0.5371E-05  0.5000E-01
 CRAZY|   1932 613.802043215059      0.1631E-03  0.5371E-05  0.5000E-01
 CRAZY|   1933 613.802043213646      0.1631E-03  0.5371E-05  0.5000E-01
 CRAZY|   1934 613.802043212234      0.1631E-03  0.5371E-05  0.5000E-01
 CRAZY|   1935 613.802043210821      0.1631E-03  0.5371E-05  0.5000E-01
 CRAZY|   1936 613.802043209409      0.1631E-03  0.5371E-05  0.5000E-01
 CRAZY|   1937 613.802043207999      0.1631E-03  0.5371E-05  0.5000E-01
 CRAZY|   1938 613.802043206586      0.1631E-03  0.5372E-05  0.5000E-01
 CRAZY|   1939 613.802043205173      0.1631E-03  0.5372E-05  0.5000E-01
 CRAZY|   1940 613.802043203759      0.1631E-03  0.5372E-05  0.5000E-01
 CRAZY|   1941 613.802043202345      0.1631E-03  0.5372E-05  0.5000E-01
 CRAZY|   1942 613.802043200933      0.1631E-03  0.5372E-05  0.5000E-01
 CRAZY|   1943 613.802043199521      0.1631E-03  0.5372E-05  0.5000E-01
 CRAZY|   1944 613.802043198111      0.1631E-03  0.5372E-05  0.5000E-01
 CRAZY|   1945 613.802043196698      0.1631E-03  0.5372E-05  0.5000E-01
 CRAZY|   1946 613.802043195286      0.1631E-03  0.5372E-05  0.5000E-01
 CRAZY|   1947 613.802043193873      0.1631E-03  0.5372E-05  0.5000E-01
 CRAZY|   1948 613.802043192459      0.1631E-03  0.5372E-05  0.5000E-01
 CRAZY|   1949 613.802043191046      0.1631E-03  0.5372E-05  0.5000E-01
 CRAZY|   1950 613.802043189634      0.1631E-03  0.5372E-05  0.5000E-01
 CRAZY|   1951 613.802043188223      0.1631E-03  0.5372E-05  0.5000E-01
 CRAZY|   1952 613.802043186810      0.1631E-03  0.5372E-05  0.5000E-01
 CRAZY|   1953 613.802043185398      0.1631E-03  0.5372E-05  0.5000E-01
 CRAZY|   1954 613.802043183984      0.1631E-03  0.5372E-05  0.5000E-01
 CRAZY|   1955 613.802043182572      0.1631E-03  0.5372E-05  0.5000E-01
 CRAZY|   1956 613.802043181157      0.1631E-03  0.5372E-05  0.5000E-01
 CRAZY|   1957 613.802043179742      0.1631E-03  0.5372E-05  0.5000E-01
 CRAZY|   1958 613.802043178329      0.1631E-03  0.5372E-05  0.5000E-01
 CRAZY|   1959 613.802043176915      0.1631E-03  0.5372E-05  0.5000E-01
 CRAZY|   1960 613.802043175503      0.1631E-03  0.5372E-05  0.5000E-01
 CRAZY|   1961 613.802043174090      0.1631E-03  0.5373E-05  0.5000E-01
 CRAZY|   1962 613.802043172676      0.1631E-03  0.5373E-05  0.5000E-01
 CRAZY|   1963 613.802043171262      0.1631E-03  0.5373E-05  0.5000E-01
 CRAZY|   1964 613.802043169848      0.1631E-03  0.5373E-05  0.5000E-01
 CRAZY|   1965 613.802043168434      0.1631E-03  0.5373E-05  0.5000E-01
 CRAZY|   1966 613.802043167020      0.1631E-03  0.5373E-05  0.5000E-01
 CRAZY|   1967 613.802043165604      0.1631E-03  0.5373E-05  0.5000E-01
 CRAZY|   1968 613.802043164189      0.1631E-03  0.5373E-05  0.5000E-01
 CRAZY|   1969 613.802043162776      0.1631E-03  0.5373E-05  0.5000E-01
 CRAZY|   1970 613.802043161363      0.1631E-03  0.5373E-05  0.5000E-01
 CRAZY|   1971 613.802043159950      0.1631E-03  0.5373E-05  0.5000E-01
 CRAZY|   1972 613.802043158538      0.1631E-03  0.5373E-05  0.5000E-01
 CRAZY|   1973 613.802043157125      0.1631E-03  0.5373E-05  0.5000E-01
 CRAZY|   1974 613.802043155713      0.1631E-03  0.5373E-05  0.5000E-01
 CRAZY|   1975 613.802043154298      0.1631E-03  0.5373E-05  0.5000E-01
 CRAZY|   1976 613.802043152883      0.1631E-03  0.5373E-05  0.5000E-01
 CRAZY|   1977 613.802043151469      0.1631E-03  0.5373E-05  0.5000E-01
 CRAZY|   1978 613.802043150056      0.1631E-03  0.5373E-05  0.5000E-01
 CRAZY|   1979 613.802043148644      0.1631E-03  0.5373E-05  0.5000E-01
 CRAZY|   1980 613.802043147232      0.1631E-03  0.5373E-05  0.5000E-01
 CRAZY|   1981 613.802043145819      0.1631E-03  0.5373E-05  0.5000E-01
 CRAZY|   1982 613.802043144406      0.1631E-03  0.5373E-05  0.5000E-01
 CRAZY|   1983 613.802043142990      0.1631E-03  0.5373E-05  0.5000E-01
 CRAZY|   1984 613.802043141575      0.1631E-03  0.5373E-05  0.5000E-01
 CRAZY|   1985 613.802043140160      0.1631E-03  0.5374E-05  0.5000E-01
 CRAZY|   1986 613.802043138746      0.1631E-03  0.5374E-05  0.5000E-01
 CRAZY|   1987 613.802043137333      0.1631E-03  0.5374E-05  0.5000E-01
 CRAZY|   1988 613.802043135919      0.1631E-03  0.5374E-05  0.5000E-01
 CRAZY|   1989 613.802043134507      0.1631E-03  0.5374E-05  0.5000E-01
 CRAZY|   1990 613.802043133093      0.1631E-03  0.5374E-05  0.5000E-01
 CRAZY|   1991 613.802043131678      0.1632E-03  0.5374E-05  0.5000E-01
 CRAZY|   1992 613.802043130262      0.1632E-03  0.5374E-05  0.5000E-01
 CRAZY|   1993 613.802043128847      0.1632E-03  0.5374E-05  0.5000E-01
 CRAZY|   1994 613.802043127432      0.1632E-03  0.5374E-05  0.5000E-01
 CRAZY|   1995 613.802043126019      0.1632E-03  0.5374E-05  0.5000E-01
 CRAZY|   1996 613.802043124605      0.1632E-03  0.5374E-05  0.5000E-01
 CRAZY|   1997 613.802043123193      0.1632E-03  0.5374E-05  0.5000E-01
 CRAZY|   1998 613.802043121779      0.1632E-03  0.5374E-05  0.5000E-01
 CRAZY|   1999 613.802043120364      0.1632E-03  0.5374E-05  0.5000E-01
 CRAZY|   2000 613.802043118949      0.1632E-03  0.5374E-05  0.5000E-01
 Crazy Wannier localization not converged after   2000 iterations, switching to jacobi rotations
         Localization by iterative Jacobi rotation
                      Iteration           Tolerance   Time 
                            100          0.3199E-03   0.000
                            200          0.3203E-03   0.000
                            300          0.3207E-03   0.000
                            400          0.3210E-03   0.000
                            500          0.3214E-03   0.000
                            600          0.3216E-03   0.000
                            700          0.3219E-03   0.000
                            800          0.3221E-03   0.000
                            900          0.3222E-03   0.000
                           1000          0.3223E-03   0.000
                           1100          0.3224E-03   0.000
                           1200          0.3224E-03   0.000
                           1300          0.3224E-03   0.000
                           1400          0.3224E-03   0.000
                           1500          0.3223E-03   0.000
                           1600          0.3222E-03   0.000
                           1700          0.3220E-03   0.000
                           1800          0.3218E-03   0.000
                           1900          0.3216E-03   0.000
                           2000          0.3213E-03   0.000
               Localization  for spin   1 converged in   2000 iterations
          Spread Functional     sum_in -w_i ln(|z_in|^2)    sum_in w_i(1-|z_in|^2)
    Total Spread (Berry) :                  16.0353645040       15.5477872338

  Electronic density on regular grids:        -16.0000000093       -0.0000000093
  Core density on regular grids:               16.0000000000        0.0000000000
  Total charge density on r-space grids:       -0.0000000093
  Total charge density g-space grids:          -0.0000000093


 ENERGY| Total FORCE_EVAL ( QS ) energy (a.u.):              -37.767200349147544


 -------------------------------------------------------------------------------
 ----                             MULTIGRID INFO                            ----
 -------------------------------------------------------------------------------
 count for grid        1:          24216          cutoff [a.u.]          175.00
 count for grid        2:          15952          cutoff [a.u.]           58.33
 count for grid        3:          11592          cutoff [a.u.]           19.44
 count for grid        4:           4728          cutoff [a.u.]            6.48
 count for grid        5:            524          cutoff [a.u.]            2.16
 total gridlevel count  :          57012

 -------------------------------------------------------------------------------
 -                                                                             -
 -                         MESSAGE PASSING PERFORMANCE                         -
 -                                                                             -
 -------------------------------------------------------------------------------

 ROUTINE             CALLS  TOT TIME [s]  AVE VOLUME [Bytes]  PERFORMANCE [MB/s]
 MP_Group                6         0.000
 MP_Bcast              340         0.001                 10.                4.23
 MP_Allreduce        24471        13.155                 27.                0.05
 MP_Sync                 5         0.000
 -------------------------------------------------------------------------------


 -------------------------------------------------------------------------------
 -                                                                             -
 -                           R E F E R E N C E S                               -
 -                                                                             -
 -------------------------------------------------------------------------------
 
 CP2K version 2.2.107 (Development Version), the CP2K developers group (2011).
 CP2K is freely available from http://cp2k.berlios.de/ .

 Grimme, S. 
 JOURNAL OF COMPUTATIONAL CHEMISTRY, 27 (15), 1787-1799 (2006). 
 Semiempirical GGA-type density functional constructed with a long-range
 dispersion correction.
 http://dx.doi.org/10.1002/jcc.20495


 Krack, M. 
 THEORETICAL CHEMISTRY ACCOUNTS, 114 (1-3), 145-152 (2005). 
 Pseudopotentials for H to Kr optimized for gradient-corrected
 exchange-correlation functionals.
 http://dx.doi.org/10.1007/s00214-005-0655-y


 VandeVondele, J; Krack, M; Mohamed, F; Parrinello, M; Chassaing, T;
 Hutter, J. COMPUTER PHYSICS COMMUNICATIONS, 167 (2), 103-128 (2005). 
 QUICKSTEP: Fast and accurate density functional calculations using a
 mixed Gaussian and plane waves approach.
 http://dx.doi.org/10.1016/j.cpc.2004.12.014


 Frigo, M; Johnson, SG. 
 PROCEEDINGS OF THE IEEE, 93 (2), 216-231 (2005). 
 The design and implementation of FFTW3.
 http://dx.doi.org/10.1109/JPROC.2004.840301


 VandeVondele, J; Hutter, J. 
 JOURNAL OF CHEMICAL PHYSICS, 118 (10), 4365-4369 (2003). 
 An efficient orbital transformation method for electronic structure
 calculations.
 http://dx.doi.org/10.1063/1.1543154


 Martyna, GJ; Tuckerman, ME. 
 JOURNAL OF CHEMICAL PHYSICS, 110 (6), 2810-2821 (1999). 
 A reciprocal space based method for treating long range interactions in
 ab initio and force-field-based calculations in clusters.
 http://dx.doi.org/10.1063/1.477923


 Hartwigsen, C; Goedecker, S; Hutter, J. 
 PHYSICAL REVIEW B, 58 (7), 3641-3662 (1998). 
 Relativistic separable dual-space Gaussian pseudopotentials from H to Rn.
 http://dx.doi.org/10.1103/PhysRevB.58.3641


 Lippert, G; Hutter, J; Parrinello, M. 
 MOLECULAR PHYSICS, 92 (3), 477-487 (1997). 
 A hybrid Gaussian and plane wave density functional scheme.
 http://dx.doi.org/10.1080/002689797170220


 Perdew, JP; Burke, K; Ernzerhof, M. 
 PHYSICAL REVIEW LETTERS, 77 (18), 3865-3868 (1996). 
 Generalized gradient approximation made simple.
 http://dx.doi.org/10.1103/PhysRevLett.77.3865


 Goedecker, S; Teter, M; Hutter, J. 
 PHYSICAL REVIEW B, 54 (3), 1703-1710 (1996). 
 Separable dual-space Gaussian pseudopotentials.
 http://dx.doi.org/10.1103/PhysRevB.54.1703


 -------------------------------------------------------------------------------
 -                                                                             -
 -                                T I M I N G                                  -
 -                                                                             -
 -------------------------------------------------------------------------------
 SUBROUTINE                       CALLS  ASD         SELF TIME        TOTAL TIME
                                              AVERAGE  MAXIMUM  AVERAGE  MAXIMUM
 CP2K                                 1  1.0    0.217    0.217  241.113  241.113
 rep_env_calc_e_f                     4  2.0    0.017    0.017  238.002  238.002
 qs_forces                            4  3.0    0.000    0.000  224.881  224.881
 qs_energies_scf                      4  4.0    0.087    0.087  212.863  212.863
 scf_env_do_scf                       4  5.0    0.007    0.007  202.958  202.958
 qs_ks_build_kohn_sham_matrix        55  7.8    1.152    1.152  184.008  184.008
 scf_env_do_scf_inner_loop           51  6.0    0.033    0.033  183.493  183.493
 qs_ks_update_qs_env                 56  7.0    0.000    0.000  172.025  172.025
 fft_wrap_pw1pw2                   1050 10.6    0.019    0.019  145.972  145.972
 qs_vxc_create                       55  8.8    0.033    0.033  143.758  143.758
 xc_vxc_pw_create                    55  9.8    2.347    2.347  143.725  143.725
 fft_wrap_pw1pw2_180                609 11.7    8.036    8.036  139.908  139.908
 fft3d_s                           1052 12.6  103.570  103.570  103.572  103.572
 xc_rho_set_and_dset_create          55 10.8    3.252    3.252   83.738   83.738
 xc_functional_eval                  55 11.8    0.027    0.027   35.479   35.479
 pbe_lda_eval                        55 12.8   35.452   35.452   35.452   35.452
 qs_rho_update_rho                   55  7.1    0.001    0.001   32.698   32.698
 calculate_rho_elec                  55  8.1    1.406    1.406   32.698   32.698
 density_rs2pw                       55  9.1    0.060    0.060   30.408   30.408
 init_scf_loop                        5  6.0    0.053    0.053   19.457   19.457
 integrate_v_rspace                  55  8.8    1.121    1.121   18.700   18.700
 potential_pw2rs                     55  9.8    0.179    0.179   17.568   17.568
 pw_scatter_s                       550 12.8   16.961   16.961   16.961   16.961
 pw_gather_s                        500 12.4   16.934   16.934   16.934   16.934
 rep_env_sync                         7  2.6   13.136   13.136   13.136   13.136
 qs_ks_update_qs_env_forces           4  4.0    0.000    0.000   11.986   11.986
 pw_derive                          330 11.3    9.136    9.136    9.136    9.136
 pw_copy                            660 10.8    6.644    6.644    6.644    6.644
 pw_poisson_solve                    55  8.8    2.993    2.993    5.947    5.947
 -------------------------------------------------------------------------------

  **** **** ******  **  PROGRAM ENDED AT                 2011-08-14 10:30:32.087
 ***** ** ***  *** **   PROGRAM RAN ON                                  r11i3n15
 **    ****   ******    PROGRAM RAN BY                                          
 ***** **    ** ** **   PROGRAM PROCESS ID                                   709
  **** **  *******  **  PROGRAM STOPPED IN   /usr/local/u/jmlarkin/CP2K/CdSe/vib
