
  **** **** ******  **  PROGRAM STARTED AT               2011-08-14 10:26:23.936
 ***** ** ***  *** **   PROGRAM STARTED ON                              r11i3n15
 **    ****   ******    PROGRAM STARTED BY                                      
 ***** **    ** ** **   PROGRAM PROCESS ID                                   705
  **** **  *******  **  PROGRAM STARTED IN   /usr/local/u/jmlarkin/CP2K/CdSe/vib

 CP2K| version string:                CP2K version 2.2.107 (Development Version)
 CP2K| is freely available from                          http://cp2k.berlios.de/
 CP2K| Program compiled at                          Tue Jun  7 13:15:52 CDT 2011
 CP2K| Program compiled on                                             diamond01
 CP2K| Program compiled for                                   Linux-x86-64-intel
 CP2K| Last CVS entry                 cp2k_info.F/1.511/Wed Jan 19 04:35:13 2011
 CP2K| Input file name                                              temp-r-2.inp
 
 GLOBAL| Force Environment number                                              1
 GLOBAL| Basis set file name            /usr/local/u/jmlarkin/CP2K/CdSe/vib/GTH_
 GLOBAL| Geminal file name                                         BASIS_GEMINAL
 GLOBAL| Potential file name            /usr/local/u/jmlarkin/CP2K/CdSe/vib/POTE
 GLOBAL| MM Potential file name                                     MM_POTENTIAL
 GLOBAL| Coordinate file name                                      __STD_INPUT__
 GLOBAL| Method name                                                        CP2K
 GLOBAL| Project name                                                   temp-r-2
 GLOBAL| Preferred FFT library                                             FFTW3
 GLOBAL| Run type                                           VIBRATIONAL_ANALYSIS
 GLOBAL| All-to-all communication in single precision                          F
 GLOBAL| FFTs using library dependent lengths                                  F
 GLOBAL| Global print level                                               MEDIUM
 GLOBAL| Total number of message passing processes                             1
 GLOBAL| Number of threads for this process                                    1
 GLOBAL| This output is from process                                           0

 MEMORY| system memory details [Kb]
 MEMORY|                        rank 0           min           max       average
 MEMORY| MemTotal                    0             0             0             0
 MEMORY| MemFree                     0             0             0             0
 MEMORY| Buffers                     0             0             0             0
 MEMORY| Cached                      0             0             0             0
 MEMORY| Slab                        0             0             0             0
 MEMORY| SReclaimable                0             0             0             0
 MEMORY| MemLikelyFree               0             0             0             0

 WARNING : FFT library FFTW3 is not available  Trying FFTSG as a default

 *** Fundamental physical constants (SI units) ***

 *** Literature: B. J. Mohr and B. N. Taylor,
 ***             CODATA recommended values of the fundamental physical
 ***             constants: 2006, Web Version 5.1
 ***             http://physics.nist.gov/constants

 Speed of light in vacuum [m/s]                             2.99792458000000E+08
 Magnetic constant or permeability of vacuum [N/A**2]       1.25663706143592E-06
 Electric constant or permittivity of vacuum [F/m]          8.85418781762039E-12
 Planck constant (h) [J*s]                                  6.62606896000000E-34
 Planck constant (h-bar) [J*s]                              1.05457162825177E-34
 Elementary charge [C]                                      1.60217648700000E-19
 Electron mass [kg]                                         9.10938215000000E-31
 Electron g factor [ ]                                     -2.00231930436220E+00
 Proton mass [kg]                                           1.67262163700000E-27
 Fine-structure constant                                    7.29735253760000E-03
 Rydberg constant [1/m]                                     1.09737315685270E+07
 Avogrado constant [1/mol]                                  6.02214179000000E+23
 Boltzmann constant [J/K]                                   1.38065040000000E-23
 Atomic mass unit [kg]                                      1.66053878200000E-27
 Bohr radius [m]                                            5.29177208590000E-11

 *** Conversion factors ***

 [u] -> [a.u.]                                              1.82288848426455E+03
 [Angstrom] -> [Bohr] = [a.u.]                              1.88972613288564E+00
 [a.u.] = [Bohr] -> [Angstrom]                              5.29177208590000E-01
 [a.u.] -> [s]                                              2.41888432650478E-17
 [a.u.] -> [fs]                                             2.41888432650478E-02
 [a.u.] -> [J]                                              4.35974393937059E-18
 [a.u.] -> [K]                                              3.15774647902944E+05
 [a.u.] -> [kJ/mol]                                         2.62549961709828E+03
 [a.u.] -> [kcal/mol]                                       6.27509468713739E+02
 [a.u.] -> [Pa]                                             2.94210107994716E+13
 [a.u.] -> [bar]                                            2.94210107994716E+08
 [a.u.] -> [atm]                                            2.90362800883016E+08
 [a.u.] -> [eV]                                             2.72113838565563E+01
 [a.u.] -> [Hz]                                             6.57968392072181E+15
 [a.u.] -> [1/cm] (wave numbers)                            2.19474631370540E+05
 [a.u./Bohr**2] -> [1/cm]                                   5.14048714338585E+03
 

 CELL| Volume [angstrom^3]:                                             1300.000
 CELL| Vector a [angstrom]:      10.000     0.000     0.000    |a| =      10.000
 CELL| Vector b [angstrom]:       0.000    10.000     0.000    |b| =      10.000
 CELL| Vector c [angstrom]:       0.000     0.000    13.000    |c| =      13.000
 CELL| Angle (b,c), alpha [degree]:                                       90.000
 CELL| Angle (a,c), beta  [degree]:                                       90.000
 CELL| Angle (a,b), gamma [degree]:                                       90.000

 CELL_REF| Volume [angstrom^3]:                                         1300.000
 CELL_REF| Vector a [angstrom    10.000     0.000     0.000    |a| =      10.000
 CELL_REF| Vector b [angstrom     0.000    10.000     0.000    |b| =      10.000
 CELL_REF| Vector c [angstrom     0.000     0.000    13.000    |c| =      13.000
 CELL_REF| Angle (b,c), alpha [degree]:                                   90.000
 CELL_REF| Angle (a,c), beta  [degree]:                                   90.000
 CELL_REF| Angle (a,b), gamma [degree]:                                   90.000

 CELL_TOP| Volume [angstrom^3]:                                         1300.000
 CELL_TOP| Vector a [angstrom    10.000     0.000     0.000    |a| =      10.000
 CELL_TOP| Vector b [angstrom     0.000    10.000     0.000    |b| =      10.000
 CELL_TOP| Vector c [angstrom     0.000     0.000    13.000    |c| =      13.000
 CELL_TOP| Angle (b,c), alpha [degree]:                                   90.000
 CELL_TOP| Angle (a,c), beta  [degree]:                                   90.000
 CELL_TOP| Angle (a,b), gamma [degree]:                                   90.000
 
 GENERATE|  Preliminary Number of Bonds generated:                             0
 GENERATE|  Achieved consistency in connectivity generation.
 GENERATE|  Number of Bonds generated:                                         0
 GENERATE|  Preliminary Number of Bends generated:                             0
 GENERATE|  Number of Bends generated:                                         0
 GENERATE|  Number of UB generated:                                            0
 GENERATE|  Preliminary Number of Torsions generated:                          0
 GENERATE|  Number of Torsions generated:                                      0
 GENERATE|  Number of Impropers generated:                                     0
 GENERATE|  Number of 1-4 interactions generated:                              0

 *******************************************************************************
 *******************************************************************************
 **                                                                           **
 **     #####                         ##              ##                      **
 **    ##   ##            ##          ##              ##                      **
 **   ##     ##                       ##            ######                    **
 **   ##     ##  ##   ##  ##   #####  ##  ##   ####   ##    #####    #####    **
 **   ##     ##  ##   ##  ##  ##      ## ##   ##      ##   ##   ##  ##   ##   **
 **   ##  ## ##  ##   ##  ##  ##      ####     ###    ##   ######   ######    **
 **    ##  ###   ##   ##  ##  ##      ## ##      ##   ##   ##       ##        **
 **     #######   #####   ##   #####  ##  ##  ####    ##    #####   ##        **
 **           ##                                                    ##        **
 **                                                                           **
 **                                                ... make the atoms dance   **
 **                                                                           **
 **            Copyright (C) by CP2K Developers Group (2000 - 2011)           **
 **                                                                           **
 *******************************************************************************

 DFT| Spin restricted Kohn-Sham (RKS) calculation                            RKS
 DFT| Multiplicity                                                             1
 DFT| Number of spin states                                                    1
 DFT| Charge                                                                   0
 DFT| Self-interaction correction (SIC)                                       NO
 DFT| Cutoffs: density                                              1.000000E-10
 DFT|          gradient                                             1.000000E-10
 DFT|          tau                                                  1.000000E-10
 DFT|          cutoff_smoothing_range                               0.000000E+00
 DFT| XC density smoothing                                                  NONE
 DFT| XC derivatives                                                          PW
 FUNCTIONAL| ROUTINE=NEW
 FUNCTIONAL| PBE:
 FUNCTIONAL| J.P.Perdew, K.Burke, M.Ernzerhof, Phys. Rev. Letter, vol. 77, n 18,
 FUNCTIONAL|  pp. 3865-3868, (1996){spin unpolarized}
 vdW POTENTIAL|                                                   Pair Potential
 vdW POTENTIAL|                   Potential Form: S. Grimme, JCC 27: 1787 (2006)
 vdW POTENTIAL|                   Cutoff Radius [Bohr]:                    20.00
 vdW POTENTIAL|                   Scaling Factor:                         0.7500
 vdW POTENTIAL|                   Exp Prefactor for Damping:                20.0
 vdW PARAMETER|  Atom=O    C6[J*nm^6*mol^-1]=  0.7000         r(vdW)[A]=  1.3420
 vdW PARAMETER|  Atom=C    C6[J*nm^6*mol^-1]=  1.7500         r(vdW)[A]=  1.4520

 QS| Method:                                                                 GPW
 QS| Density plane wave grid type                        NON-SPHERICAL FULLSPACE
 QS| Number of grid levels:                                                    5
 QS| Density cutoff [a.u.]:                                                175.0
 QS| Multi grid cutoff [a.u.]: 1) grid level                               175.0
 QS|                           2) grid level                                58.3
 QS|                           3) grid level                                19.4
 QS|                           4) grid level                                 6.5
 QS|                           5) grid level                                 2.2
 QS| Grid level progression factor:                                          3.0
 QS| Relative density cutoff [a.u.]:                                        15.0
 QS| Consistent realspace mapping and integration 
 QS| Interaction thresholds: eps_pgf_orb:                                1.0E-06
 QS|                         eps_filter_matrix:                          0.0E+00
 QS|                         eps_core_charge:                            1.0E-14
 QS|                         eps_rho_gspace:                             1.0E-12
 QS|                         eps_rho_rspace:                             1.0E-12
 QS|                         eps_gvg_rspace:                             1.0E-06
 QS|                         eps_ppl:                                    1.0E-02
 QS|                         eps_ppnl:                                   1.0E-08


 ATOMIC KIND INFORMATION

  1. Atomic kind: O                                     Number of atoms:       2

     Orbital basis set information for                                 QZV2P-GTH

       Number of orbital shell sets:                                           2
       Number of orbital shells:                                              10
       Number of primitive Cartesian functions:                                8
       Number of Cartesian basis functions:                                   28
       Number of spherical basis functions:                                   26

       Normalised Cartesian orbitals:

                        Set   Shell   Orbital            Exponent    Coefficient

                          1       1    2s               11.829868      -0.299448
                                                         4.932631      -0.313061
                                                         1.931300       0.178604
                                                         0.772400       0.305726
                                                         0.297633       0.124142
                                                         0.107006       0.008000

                          1       2    3s               11.829868       0.000000
                                                         4.932631       0.000000
                                                         1.931300       0.000000
                                                         0.772400       0.587208
                                                         0.297633       0.000000
                                                         0.107006       0.000000

                          1       3    4s               11.829868       0.000000
                                                         4.932631       0.000000
                                                         1.931300       0.000000
                                                         0.772400       0.000000
                                                         0.297633       0.287191
                                                         0.107006       0.000000

                          1       4    5s               11.829868       0.000000
                                                         4.932631       0.000000
                                                         1.931300       0.000000
                                                         0.772400       0.000000
                                                         0.297633       0.000000
                                                         0.107006       0.133342

                          1       5    3px              11.829868       1.219605
                                                         4.932631       1.393422
                                                         1.931300       0.888549
                                                         0.772400       0.378112
                                                         0.297633       0.103178
                                                         0.107006       0.011555
                          1       5    3py              11.829868       1.219605
                                                         4.932631       1.393422
                                                         1.931300       0.888549
                                                         0.772400       0.378112
                                                         0.297633       0.103178
                                                         0.107006       0.011555
                          1       5    3pz              11.829868       1.219605
                                                         4.932631       1.393422
                                                         1.931300       0.888549
                                                         0.772400       0.378112
                                                         0.297633       0.103178
                                                         0.107006       0.011555

                          1       6    4px              11.829868       0.000000
                                                         4.932631       0.000000
                                                         1.931300       0.000000
                                                         0.772400       1.032151
                                                         0.297633       0.000000
                                                         0.107006       0.000000
                          1       6    4py              11.829868       0.000000
                                                         4.932631       0.000000
                                                         1.931300       0.000000
                                                         0.772400       1.032151
                                                         0.297633       0.000000
                                                         0.107006       0.000000
                          1       6    4pz              11.829868       0.000000
                                                         4.932631       0.000000
                                                         1.931300       0.000000
                                                         0.772400       1.032151
                                                         0.297633       0.000000
                                                         0.107006       0.000000

                          1       7    5px              11.829868       0.000000
                                                         4.932631       0.000000
                                                         1.931300       0.000000
                                                         0.772400       0.000000
                                                         0.297633       0.313359
                                                         0.107006       0.000000
                          1       7    5py              11.829868       0.000000
                                                         4.932631       0.000000
                                                         1.931300       0.000000
                                                         0.772400       0.000000
                                                         0.297633       0.313359
                                                         0.107006       0.000000
                          1       7    5pz              11.829868       0.000000
                                                         4.932631       0.000000
                                                         1.931300       0.000000
                                                         0.772400       0.000000
                                                         0.297633       0.313359
                                                         0.107006       0.000000

                          1       8    6px              11.829868       0.000000
                                                         4.932631       0.000000
                                                         1.931300       0.000000
                                                         0.772400       0.000000
                                                         0.297633       0.000000
                                                         0.107006       0.087237
                          1       8    6py              11.829868       0.000000
                                                         4.932631       0.000000
                                                         1.931300       0.000000
                                                         0.772400       0.000000
                                                         0.297633       0.000000
                                                         0.107006       0.087237
                          1       8    6pz              11.829868       0.000000
                                                         4.932631       0.000000
                                                         1.931300       0.000000
                                                         0.772400       0.000000
                                                         0.297633       0.000000
                                                         0.107006       0.087237

                          2       1    3dx2              2.314000       7.145709
                                                         0.645000       0.000000
                          2       1    3dxy              2.314000      12.376731
                                                         0.645000       0.000000
                          2       1    3dxz              2.314000      12.376731
                                                         0.645000       0.000000
                          2       1    3dy2              2.314000       7.145709
                                                         0.645000       0.000000
                          2       1    3dyz              2.314000      12.376731
                                                         0.645000       0.000000
                          2       1    3dz2              2.314000       7.145709
                                                         0.645000       0.000000

                          2       2    4dx2              2.314000       0.000000
                                                         0.645000       0.764080
                          2       2    4dxy              2.314000       0.000000
                                                         0.645000       1.323426
                          2       2    4dxz              2.314000       0.000000
                                                         0.645000       1.323426
                          2       2    4dy2              2.314000       0.000000
                                                         0.645000       0.764080
                          2       2    4dyz              2.314000       0.000000
                                                         0.645000       1.323426
                          2       2    4dz2              2.314000       0.000000
                                                         0.645000       0.764080

     Potential information for                                        GTH-PBE-q6

       Description:                       Goedecker-Teter-Hutter pseudopotential
                                           Goedecker et al., PRB 54, 1703 (1996)
                                          Hartwigsen et al., PRB 58, 3641 (1998)
                                                      Krack, TCA 114, 145 (2005)

       Gaussian exponent of the core charge distribution:               8.360253
       Electronic configuration (s p d ...):                               2   4

       Parameters of the local part of the GTH pseudopotential:

                          rloc        C1          C2          C3          C4
                        0.244554  -16.667215    2.487311

       Parameters of the non-local part of the GTH pseudopotential:

                   l      r(l)      h(i,j,l)

                   0    0.220956   18.337458
                   1    0.211332

  2. Atomic kind: C                                     Number of atoms:       1

     Orbital basis set information for                                 QZV2P-GTH

       Number of orbital shell sets:                                           2
       Number of orbital shells:                                              10
       Number of primitive Cartesian functions:                                8
       Number of Cartesian basis functions:                                   28
       Number of spherical basis functions:                                   26

       Normalised Cartesian orbitals:

                        Set   Shell   Orbital            Exponent    Coefficient

                          1       1    2s                6.211790      -0.181428
                                                         2.606342      -0.189726
                                                         1.011026       0.098111
                                                         0.409977       0.189293
                                                         0.161541       0.080390
                                                         0.059735       0.005156

                          1       2    3s                6.211790       0.000000
                                                         2.606342       0.000000
                                                         1.011026       0.000000
                                                         0.409977       0.365157
                                                         0.161541       0.000000
                                                         0.059735       0.000000

                          1       3    4s                6.211790       0.000000
                                                         2.606342       0.000000
                                                         1.011026       0.000000
                                                         0.409977       0.000000
                                                         0.161541       0.181603
                                                         0.059735       0.000000

                          1       4    5s                6.211790       0.000000
                                                         2.606342       0.000000
                                                         1.011026       0.000000
                                                         0.409977       0.000000
                                                         0.161541       0.000000
                                                         0.059735       0.086116

                          1       5    3px               6.211790       0.455098
                                                         2.606342       0.567807
                                                         1.011026       0.369480
                                                         0.409977       0.170387
                                                         0.161541       0.050941
                                                         0.059735       0.005893
                          1       5    3py               6.211790       0.455098
                                                         2.606342       0.567807
                                                         1.011026       0.369480
                                                         0.409977       0.170387
                                                         0.161541       0.050941
                                                         0.059735       0.005893
                          1       5    3pz               6.211790       0.455098
                                                         2.606342       0.567807
                                                         1.011026       0.369480
                                                         0.409977       0.170387
                                                         0.161541       0.050941
                                                         0.059735       0.005893

                          1       6    4px               6.211790       0.000000
                                                         2.606342       0.000000
                                                         1.011026       0.000000
                                                         0.409977       0.467616
                                                         0.161541       0.000000
                                                         0.059735       0.000000
                          1       6    4py               6.211790       0.000000
                                                         2.606342       0.000000
                                                         1.011026       0.000000
                                                         0.409977       0.467616
                                                         0.161541       0.000000
                                                         0.059735       0.000000
                          1       6    4pz               6.211790       0.000000
                                                         2.606342       0.000000
                                                         1.011026       0.000000
                                                         0.409977       0.467616
                                                         0.161541       0.000000
                                                         0.059735       0.000000

                          1       7    5px               6.211790       0.000000
                                                         2.606342       0.000000
                                                         1.011026       0.000000
                                                         0.409977       0.000000
                                                         0.161541       0.145980
                                                         0.059735       0.000000
                          1       7    5py               6.211790       0.000000
                                                         2.606342       0.000000
                                                         1.011026       0.000000
                                                         0.409977       0.000000
                                                         0.161541       0.145980
                                                         0.059735       0.000000
                          1       7    5pz               6.211790       0.000000
                                                         2.606342       0.000000
                                                         1.011026       0.000000
                                                         0.409977       0.000000
                                                         0.161541       0.145980
                                                         0.059735       0.000000

                          1       8    6px               6.211790       0.000000
                                                         2.606342       0.000000
                                                         1.011026       0.000000
                                                         0.409977       0.000000
                                                         0.161541       0.000000
                                                         0.059735       0.042095
                          1       8    6py               6.211790       0.000000
                                                         2.606342       0.000000
                                                         1.011026       0.000000
                                                         0.409977       0.000000
                                                         0.161541       0.000000
                                                         0.059735       0.042095
                          1       8    6pz               6.211790       0.000000
                                                         2.606342       0.000000
                                                         1.011026       0.000000
                                                         0.409977       0.000000
                                                         0.161541       0.000000
                                                         0.059735       0.042095

                          2       1    3dx2              1.097000       1.935401
                                                         0.318000       0.000000
                          2       1    3dxy              1.097000       3.352214
                                                         0.318000       0.000000
                          2       1    3dxz              1.097000       3.352214
                                                         0.318000       0.000000
                          2       1    3dy2              1.097000       1.935401
                                                         0.318000       0.000000
                          2       1    3dyz              1.097000       3.352214
                                                         0.318000       0.000000
                          2       1    3dz2              1.097000       1.935401
                                                         0.318000       0.000000

                          2       2    4dx2              1.097000       0.000000
                                                         0.318000       0.221644
                          2       2    4dxy              1.097000       0.000000
                                                         0.318000       0.383899
                          2       2    4dxz              1.097000       0.000000
                                                         0.318000       0.383899
                          2       2    4dy2              1.097000       0.000000
                                                         0.318000       0.221644
                          2       2    4dyz              1.097000       0.000000
                                                         0.318000       0.383899
                          2       2    4dz2              1.097000       0.000000
                                                         0.318000       0.221644

     Potential information for                                        GTH-PBE-q4

       Description:                       Goedecker-Teter-Hutter pseudopotential
                                           Goedecker et al., PRB 54, 1703 (1996)
                                          Hartwigsen et al., PRB 58, 3641 (1998)
                                                      Krack, TCA 114, 145 (2005)

       Gaussian exponent of the core charge distribution:               4.364419
       Electronic configuration (s p d ...):                               2   2

       Parameters of the local part of the GTH pseudopotential:

                          rloc        C1          C2          C3          C4
                        0.338471   -8.803674    1.339211

       Parameters of the non-local part of the GTH pseudopotential:

                   l      r(l)      h(i,j,l)

                   0    0.302576    9.622487
                   1    0.291507


 MOLECULE KIND INFORMATION


 All atoms are their own molecule, skipping detailed information


 TOTAL NUMBERS AND MAXIMUM NUMBERS

  Total number of            - Atomic kinds:                                   2
                             - Atoms:                                          3
                             - Shell sets:                                     6
                             - Shells:                                        30
                             - Primitive Cartesian functions:                 24
                             - Cartesian basis functions:                     84
                             - Spherical basis functions:                     78

  Maximum angular momentum of- Orbital basis functions:                        2
                             - Local part of the GTH pseudopotential:          2
                             - Non-local part of the GTH pseudopotential:      0


 MODULE QUICKSTEP:  ATOMIC COORDINATES IN angstrom

  Atom  Kind  Element       X           Y           Z          Z(eff)       Mass

       1     1 O    8    0.000000    0.000000   -1.167609      6.00      15.9994
       2     1 O    8    0.000000    0.000000    1.167609      6.00      15.9994
       3     2 C    6    0.000000    0.000000    0.000000      4.00      12.0107




 SCF PARAMETERS         Density guess:                                   RESTART
                        --------------------------------------------------------
                        max_scf:                                              30
                        max_scf_history:                                       0
                        max_diis:                                              4
                        --------------------------------------------------------
                        eps_scf:                                        1.00E-06
                        eps_scf_history:                                0.00E+00
                        eps_diis:                                       1.00E-01
                        eps_eigval:                                     1.00E-05
                        --------------------------------------------------------
                        level_shift [a.u.]:                                 0.00
                        --------------------------------------------------------
                        Outer loop SCF in use 
                        No variables optimised in outer loop
                        eps_scf                                         1.00E-06
                        max_scf                                               20
                        No outer loop optimization
                        step_size                                       5.00E-01

 PW_GRID: Information for grid number                                          7
 PW_GRID: Cutoff [a.u.]                                                    350.0
 PW_GRID: spherical cutoff:                                                   NO
 PW_GRID:   Bounds   1            -80      79                Points:         160
 PW_GRID:   Bounds   2            -80      79                Points:         160
 PW_GRID:   Bounds   3           -108     107                Points:         216
 PW_GRID: Volume element (a.u.^3)  0.1587E-02     Volume (a.u.^3)      8772.8350
 PW_GRID: Grid span                                                    FULLSPACE

 PW_GRID: Information for grid number                                          8
 PW_GRID: Cutoff [a.u.]                                                    175.0
 PW_GRID: spherical cutoff:                                                   NO
 PW_GRID:   Bounds   1            -60      59                Points:         120
 PW_GRID:   Bounds   2            -60      59                Points:         120
 PW_GRID:   Bounds   3            -75      74                Points:         150
 PW_GRID: Volume element (a.u.^3)  0.4061E-02     Volume (a.u.^3)      8772.8350
 PW_GRID: Grid span                                                    FULLSPACE

 PW_GRID: Information for grid number                                          9
 PW_GRID: Cutoff [a.u.]                                                     58.3
 PW_GRID: spherical cutoff:                                                   NO
 PW_GRID:   Bounds   1            -36      35                Points:          72
 PW_GRID:   Bounds   2            -36      35                Points:          72
 PW_GRID:   Bounds   3            -45      44                Points:          90
 PW_GRID: Volume element (a.u.^3)  0.1880E-01     Volume (a.u.^3)      8772.8350
 PW_GRID: Grid span                                                    FULLSPACE

 PW_GRID: Information for grid number                                         10
 PW_GRID: Cutoff [a.u.]                                                     19.4
 PW_GRID: spherical cutoff:                                                   NO
 PW_GRID:   Bounds   1            -20      19                Points:          40
 PW_GRID:   Bounds   2            -20      19                Points:          40
 PW_GRID:   Bounds   3            -27      26                Points:          54
 PW_GRID: Volume element (a.u.^3)  0.1015         Volume (a.u.^3)      8772.8350
 PW_GRID: Grid span                                                    FULLSPACE

 PW_GRID: Information for grid number                                         11
 PW_GRID: Cutoff [a.u.]                                                      6.5
 PW_GRID: spherical cutoff:                                                   NO
 PW_GRID:   Bounds   1            -12      11                Points:          24
 PW_GRID:   Bounds   2            -12      11                Points:          24
 PW_GRID:   Bounds   3            -15      14                Points:          30
 PW_GRID: Volume element (a.u.^3)  0.5077         Volume (a.u.^3)      8772.8350
 PW_GRID: Grid span                                                    FULLSPACE

 PW_GRID: Information for grid number                                         12
 PW_GRID: Cutoff [a.u.]                                                      2.2
 PW_GRID: spherical cutoff:                                                   NO
 PW_GRID:   Bounds   1             -7       7                Points:          15
 PW_GRID:   Bounds   2             -7       7                Points:          15
 PW_GRID:   Bounds   3             -9       8                Points:          18
 PW_GRID: Volume element (a.u.^3)   2.166         Volume (a.u.^3)      8772.8350
 PW_GRID: Grid span                                                    FULLSPACE

 RS_GRID: Information for grid number                                          8
 RS_GRID:   Bounds   1            -60      59                Points:         120
 RS_GRID:   Bounds   2            -60      59                Points:         120
 RS_GRID:   Bounds   3            -75      74                Points:         150

 RS_GRID: Information for grid number                                          9
 RS_GRID:   Bounds   1            -36      35                Points:          72
 RS_GRID:   Bounds   2            -36      35                Points:          72
 RS_GRID:   Bounds   3            -45      44                Points:          90

 RS_GRID: Information for grid number                                         10
 RS_GRID:   Bounds   1            -20      19                Points:          40
 RS_GRID:   Bounds   2            -20      19                Points:          40
 RS_GRID:   Bounds   3            -27      26                Points:          54

 RS_GRID: Information for grid number                                         11
 RS_GRID:   Bounds   1            -12      11                Points:          24
 RS_GRID:   Bounds   2            -12      11                Points:          24
 RS_GRID:   Bounds   3            -15      14                Points:          30

 RS_GRID: Information for grid number                                         12
 RS_GRID:   Bounds   1             -7       7                Points:          15
 RS_GRID:   Bounds   2             -7       7                Points:          15
 RS_GRID:   Bounds   3             -9       8                Points:          18

 DISTRIBUTION OF THE PARTICLES (ROWS)
              Process row      Number of particles         Number of matrix rows
                        0                        3                            -1
                      Sum                        3                            -1

 DISTRIBUTION OF THE PARTICLES (COLUMNS)
              Process col      Number of particles      Number of matrix columns
                        0                        3                            -1
                      Sum                        3                            -1

 DISTRIBUTION OF THE NEIGHBOR LISTS
              Total number of particle pairs:                                 39
              Total number of matrix elements:                             26364
              Average number of particle pairs:                               39
              Maximum number of particle pairs:                               39
              Average number of matrix element:                            26364
              Maximum number of matrix elements:                           26364


 DISTRIBUTION OF THE OVERLAP MATRIX
              Number  of non-zero blocks:                                      6
              Percentage non-zero blocks:                                 100.00
              Average number of blocks per CPU:                                6
              Maximum number of blocks per CPU:                                6
              Average number of matrix elements per CPU:                    4056
              Maximum number of matrix elements per CPU:                    4056

 Number of electrons:                                                         16
 Number of occupied orbitals:                                                  8
 Number of molecular orbitals:                                                 8

 Number of orbital functions:                                                 78
 Number of independent orbital functions:                                     78

 Extrapolation method: initial_guess

 *** 10:26:35 WARNING in qs_initial_guess:calculate_first_density_matrix    ***
 *** err=-300  User requested to restart the wavefunction from the file     ***
 *** named: temp-r-2-RESTART.wfn. This file does not exist. Please check    ***
 *** the existence of the file or change properly the value of the keyword  ***
 *** WFN_RESTART_FILE_NAME. Calculation continues using ATOMIC GUESS.       ***
 *** /usr/local/u/jmlarkin/CP2K/cp2k/makefiles/../src/qs_initial_guess.F    ***
 *** line    231                                                            ***

 Atomic guess: The first density matrix is obtained in terms of atomic orbitals
               and electronic configurations assigned to each atomic kind

 Guess for atomic kind: O

 Electronic structure
    Total number of core electrons                                          2.00
    Total number of valence electrons                                       6.00
    Total number of electrons                                               8.00
    Multiplicity                                                   not specified
    S   [  2.00] 2.00
    P      4.00
 

 *******************************************************************************
                  Iteration          Convergence                     Energy [au]
 *******************************************************************************
                          1         2.18546                     -14.421592257754
                          2         2.69278                     -13.555084223277
                          3        0.447857                     -15.582518344613
                          4        0.533362E-01                 -15.656339190379
                          5        0.343584E-02                 -15.657205503018
                          6        0.157467E-03                 -15.657209313096
                          7        0.668939E-06                 -15.657209321838

 Energy components [Hartree]           Total Energy ::          -15.657209321838
                                        Band Energy ::           -3.002498769363
                                     Kinetic Energy ::           11.774068762364
                                   Potential Energy ::          -27.431278084202
                                      Virial (-V/T) ::            2.329804474379
                                        Core Energy ::          -26.139244223055
                                          XC Energy ::           -3.153870619768
                                     Coulomb Energy ::           13.635905520985
                       Total Pseudopotential Energy ::          -37.948527599483
                       Local Pseudopotential Energy ::          -39.248895363653
                    Nonlocal Pseudopotential Energy ::            1.300367764171
                                        Confinement ::            0.352146140634

 Orbital energies  State     L     Occupation   Energy[a.u.]          Energy[eV]

                       1     0          2.000      -0.865035          -23.538787
                       2     0          0.000       0.148161            4.031658
                       3     0          0.000       1.268684           34.522651
                       4     0          0.000      15.043188          409.345953
 
                       1     1          4.000      -0.318107           -8.656143
                       2     1          0.000       0.229143            6.235300
                       3     1          0.000       1.076359           29.289206
                       4     1          0.000       4.260328          115.929412
 

 Guess for atomic kind: C

 Electronic structure
    Total number of core electrons                                          2.00
    Total number of valence electrons                                       4.00
    Total number of electrons                                               6.00
    Multiplicity                                                   not specified
    S   [  2.00] 2.00
    P      2.00
 

 *******************************************************************************
                  Iteration          Convergence                     Energy [au]
 *******************************************************************************
                          1        0.298189                      -5.146106674700
                          2        0.233825                      -5.202427473298
                          3        0.178756E-01                  -5.283543978370
                          4        0.570045E-03                  -5.284038237521
                          5        0.299436E-04                  -5.284038356028
                          6        0.163542E-06                  -5.284038357465

 Energy components [Hartree]           Total Energy ::           -5.284038357465
                                        Band Energy ::           -1.317146178102
                                     Kinetic Energy ::            3.390422048629
                                   Potential Energy ::           -8.674460406095
                                      Virial (-V/T) ::            2.558519347053
                                        Core Energy ::           -8.295784343766
                                          XC Energy ::           -1.377306946079
                                     Coulomb Energy ::            4.389052932380
                       Total Pseudopotential Energy ::          -11.720389813560
                       Local Pseudopotential Energy ::          -12.366572543168
                    Nonlocal Pseudopotential Energy ::            0.646182729609
                                        Confinement ::            0.341834211642

 Orbital energies  State     L     Occupation   Energy[a.u.]          Energy[eV]

                       1     0          2.000      -0.484432          -13.182076
                       2     0          0.000       0.102012            2.775900
                       3     0          0.000       0.691171           18.807710
                       4     0          0.000       8.065504          219.473523
 
                       1     1          2.000      -0.174141           -4.738609
                       2     1          0.000       0.160398            4.364645
                       3     1          0.000       0.605105           16.465744
                       4     1          0.000       2.314792           62.988684
 
 Re-scaling the density matrix to get the right number of electrons
                  # Electrons              Trace(P)               Scaling factor
                           16                16.000                        1.000


 SCF WAVEFUNCTION OPTIMIZATION

  ----------------------------------- OT ---------------------------------------

  Allowing for rotations:  F
  Optimizing orbital energies:  F
  Minimizer      : DIIS                : direct inversion
                                         in the iterative subspace
                            using      : -   7 DIIS vectors
                                         - safer DIIS on
  Preconditioner : FULL_ALL            : diagonalization, state selective
  Precond_solver : DEFAULT
  stepsize       :    0.15000000
  energy_gap     :    0.00100000

  eps_taylor     :   0.10000E-15
  max_taylor     :             4

  mixed_precision    : F

  ----------------------------------- OT ---------------------------------------

  Step     Update method      Time    Convergence         Total energy    Change
  ------------------------------------------------------------------------------

  Electronic density on regular grids:        -16.0000000113       -0.0000000113
  Core density on regular grids:               16.0000000000        0.0000000000
  Total charge density on r-space grids:       -0.0000000113
  Total charge density g-space grids:          -0.0000000113

     1 OT DIIS     0.15E+00    5.8     0.16179405       -36.1485047000 -3.61E+01

  Electronic density on regular grids:        -16.0000000116       -0.0000000116
  Core density on regular grids:               16.0000000000        0.0000000000
  Total charge density on r-space grids:       -0.0000000116
  Total charge density g-space grids:          -0.0000000116

     2 OT DIIS     0.15E+00    4.4     0.42925458       -35.4470399741  7.01E-01

  Electronic density on regular grids:        -16.0000000151       -0.0000000151
  Core density on regular grids:               16.0000000000        0.0000000000
  Total charge density on r-space grids:       -0.0000000151
  Total charge density g-space grids:          -0.0000000151

     3 OT DIIS     0.15E+00    4.2     0.12604396       -37.0019804149 -1.55E+00

  Electronic density on regular grids:        -16.0000000100       -0.0000000100
  Core density on regular grids:               16.0000000000        0.0000000000
  Total charge density on r-space grids:       -0.0000000100
  Total charge density g-space grids:          -0.0000000100

     4 OT DIIS     0.15E+00    4.1     0.08019608       -37.4006885340 -3.99E-01

  Electronic density on regular grids:        -16.0000000104       -0.0000000104
  Core density on regular grids:               16.0000000000        0.0000000000
  Total charge density on r-space grids:       -0.0000000104
  Total charge density g-space grids:          -0.0000000104

     5 OT DIIS     0.15E+00    4.0     0.05352610       -37.6072419411 -2.07E-01

  Electronic density on regular grids:        -16.0000000087       -0.0000000087
  Core density on regular grids:               16.0000000000        0.0000000000
  Total charge density on r-space grids:       -0.0000000087
  Total charge density g-space grids:          -0.0000000087

     6 OT DIIS     0.15E+00    3.9     0.06152129       -37.6915794847 -8.43E-02

  Electronic density on regular grids:        -16.0000000091       -0.0000000091
  Core density on regular grids:               16.0000000000        0.0000000000
  Total charge density on r-space grids:       -0.0000000091
  Total charge density g-space grids:          -0.0000000091

     7 OT DIIS     0.15E+00    4.0     0.05711380       -37.6895649426  2.01E-03

  Electronic density on regular grids:        -16.0000000077       -0.0000000077
  Core density on regular grids:               16.0000000000        0.0000000000
  Total charge density on r-space grids:       -0.0000000077
  Total charge density g-space grids:          -0.0000000077

     8 OT DIIS     0.15E+00    4.0     0.01352620       -37.7581043889 -6.85E-02

  Electronic density on regular grids:        -16.0000000079       -0.0000000079
  Core density on regular grids:               16.0000000000        0.0000000000
  Total charge density on r-space grids:       -0.0000000080
  Total charge density g-space grids:          -0.0000000080

     9 OT DIIS     0.15E+00    3.9     0.00954736       -37.7638221363 -5.72E-03

  Electronic density on regular grids:        -16.0000000080       -0.0000000080
  Core density on regular grids:               16.0000000000        0.0000000000
  Total charge density on r-space grids:       -0.0000000080
  Total charge density g-space grids:          -0.0000000080

    10 OT DIIS     0.15E+00    3.9     0.00652107       -37.7657365037 -1.91E-03

  Electronic density on regular grids:        -16.0000000081       -0.0000000081
  Core density on regular grids:               16.0000000000        0.0000000000
  Total charge density on r-space grids:       -0.0000000081
  Total charge density g-space grids:          -0.0000000081

    11 OT DIIS     0.15E+00    3.9     0.00356884       -37.7664074742 -6.71E-04

  Electronic density on regular grids:        -16.0000000081       -0.0000000081
  Core density on regular grids:               16.0000000000        0.0000000000
  Total charge density on r-space grids:       -0.0000000081
  Total charge density g-space grids:          -0.0000000081

    12 OT DIIS     0.15E+00    3.9     0.00160358       -37.7668363883 -4.29E-04

  Electronic density on regular grids:        -16.0000000081       -0.0000000081
  Core density on regular grids:               16.0000000000        0.0000000000
  Total charge density on r-space grids:       -0.0000000081
  Total charge density g-space grids:          -0.0000000081

    13 OT DIIS     0.15E+00    3.9     0.00091934       -37.7669902196 -1.54E-04

  Electronic density on regular grids:        -16.0000000082       -0.0000000082
  Core density on regular grids:               16.0000000000        0.0000000000
  Total charge density on r-space grids:       -0.0000000082
  Total charge density g-space grids:          -0.0000000082

    14 OT DIIS     0.15E+00    3.9     0.00047911       -37.7670294624 -3.92E-05

  Electronic density on regular grids:        -16.0000000082       -0.0000000082
  Core density on regular grids:               16.0000000000        0.0000000000
  Total charge density on r-space grids:       -0.0000000082
  Total charge density g-space grids:          -0.0000000082

    15 OT DIIS     0.15E+00    3.9     0.00044944       -37.7670401290 -1.07E-05

  Electronic density on regular grids:        -16.0000000082       -0.0000000082
  Core density on regular grids:               16.0000000000        0.0000000000
  Total charge density on r-space grids:       -0.0000000082
  Total charge density g-space grids:          -0.0000000082

    16 OT DIIS     0.15E+00    3.8     0.00026630       -37.7670452135 -5.08E-06

  Electronic density on regular grids:        -16.0000000082       -0.0000000082
  Core density on regular grids:               16.0000000000        0.0000000000
  Total charge density on r-space grids:       -0.0000000082
  Total charge density g-space grids:          -0.0000000082

    17 OT DIIS     0.15E+00    3.9     0.00013139       -37.7670472021 -1.99E-06

  Electronic density on regular grids:        -16.0000000082       -0.0000000082
  Core density on regular grids:               16.0000000000        0.0000000000
  Total charge density on r-space grids:       -0.0000000082
  Total charge density g-space grids:          -0.0000000082

    18 OT DIIS     0.15E+00    3.9     0.00014280       -37.7670479925 -7.90E-07

  Electronic density on regular grids:        -16.0000000082       -0.0000000082
  Core density on regular grids:               16.0000000000        0.0000000000
  Total charge density on r-space grids:       -0.0000000082
  Total charge density g-space grids:          -0.0000000082

    19 OT DIIS     0.15E+00    3.9     0.00010099       -37.7670482007 -2.08E-07

  Electronic density on regular grids:        -16.0000000082       -0.0000000082
  Core density on regular grids:               16.0000000000        0.0000000000
  Total charge density on r-space grids:       -0.0000000082
  Total charge density g-space grids:          -0.0000000082

    20 OT DIIS     0.15E+00    3.8     0.00004873       -37.7670483630 -1.62E-07

  Electronic density on regular grids:        -16.0000000082       -0.0000000082
  Core density on regular grids:               16.0000000000        0.0000000000
  Total charge density on r-space grids:       -0.0000000082
  Total charge density g-space grids:          -0.0000000082

    21 OT DIIS     0.15E+00    3.8     0.00002561       -37.7670484398 -7.67E-08

  Electronic density on regular grids:        -16.0000000082       -0.0000000082
  Core density on regular grids:               16.0000000000        0.0000000000
  Total charge density on r-space grids:       -0.0000000082
  Total charge density g-space grids:          -0.0000000082

    22 OT DIIS     0.15E+00    3.8     0.00001888       -37.7670484677 -2.80E-08

  Electronic density on regular grids:        -16.0000000082       -0.0000000082
  Core density on regular grids:               16.0000000000        0.0000000000
  Total charge density on r-space grids:       -0.0000000082
  Total charge density g-space grids:          -0.0000000082

    23 OT DIIS     0.15E+00    3.8     0.00001491       -37.7670484823 -1.46E-08

  Electronic density on regular grids:        -16.0000000082       -0.0000000082
  Core density on regular grids:               16.0000000000        0.0000000000
  Total charge density on r-space grids:       -0.0000000082
  Total charge density g-space grids:          -0.0000000082

    24 OT DIIS     0.15E+00    3.8     0.00001191       -37.7670484882 -5.94E-09

  Electronic density on regular grids:        -16.0000000082       -0.0000000082
  Core density on regular grids:               16.0000000000        0.0000000000
  Total charge density on r-space grids:       -0.0000000082
  Total charge density g-space grids:          -0.0000000082

    25 OT DIIS     0.15E+00    3.8     0.00000626       -37.7670484915 -3.28E-09

  Electronic density on regular grids:        -16.0000000082       -0.0000000082
  Core density on regular grids:               16.0000000000        0.0000000000
  Total charge density on r-space grids:       -0.0000000082
  Total charge density g-space grids:          -0.0000000082

    26 OT DIIS     0.15E+00    3.8     0.00000567       -37.7670484933 -1.77E-09

  Electronic density on regular grids:        -16.0000000082       -0.0000000082
  Core density on regular grids:               16.0000000000        0.0000000000
  Total charge density on r-space grids:       -0.0000000082
  Total charge density g-space grids:          -0.0000000082

    27 OT DIIS     0.15E+00    3.8     0.00000629       -37.7670484938 -5.52E-10

  Electronic density on regular grids:        -16.0000000082       -0.0000000082
  Core density on regular grids:               16.0000000000        0.0000000000
  Total charge density on r-space grids:       -0.0000000082
  Total charge density g-space grids:          -0.0000000082

    28 OT DIIS     0.15E+00    3.8     0.00000357       -37.7670484945 -6.50E-10

  Electronic density on regular grids:        -16.0000000082       -0.0000000082
  Core density on regular grids:               16.0000000000        0.0000000000
  Total charge density on r-space grids:       -0.0000000082
  Total charge density g-space grids:          -0.0000000082

    29 OT DIIS     0.15E+00    3.8     0.00000186       -37.7670484948 -3.33E-10

  Electronic density on regular grids:        -16.0000000082       -0.0000000082
  Core density on regular grids:               16.0000000000        0.0000000000
  Total charge density on r-space grids:       -0.0000000082
  Total charge density g-space grids:          -0.0000000082

    30 OT DIIS     0.15E+00    3.8     0.00000131       -37.7670484950 -1.60E-10

  *** SCF run NOT converged ***


  Electronic density on regular grids:        -16.0000000082       -0.0000000082
  Core density on regular grids:               16.0000000000        0.0000000000
  Total charge density on r-space grids:       -0.0000000082
  Total charge density g-space grids:          -0.0000000082

  Overlap energy of the core charge distribution:               0.00000294879516
  Self energy of the core charge distribution:                -96.38742208476296
  Core Hamiltonian energy:                                     27.77531196769435
  Hartree energy:                                              39.51805645239982
  Exchange-correlation energy:                                 -8.67290517855354
  Dispersion energy:                                           -0.00009260055932

  Total energy:                                               -37.76704849498650

  outer SCF iter =    1 RMS gradient =   0.13E-05 energy =        -37.7670484950

  ----------------------------------- OT ---------------------------------------

  Allowing for rotations:  F
  Optimizing orbital energies:  F
  Minimizer      : DIIS                : direct inversion
                                         in the iterative subspace
                            using      : -   7 DIIS vectors
                                         - safer DIIS on
  Preconditioner : FULL_ALL            : diagonalization, state selective
  Precond_solver : DEFAULT
  stepsize       :    0.15000000
  energy_gap     :    0.00100000

  eps_taylor     :   0.10000E-15
  max_taylor     :             4

  mixed_precision    : F

  ----------------------------------- OT ---------------------------------------

  Step     Update method      Time    Convergence         Total energy    Change
  ------------------------------------------------------------------------------

  Electronic density on regular grids:        -16.0000000082       -0.0000000082
  Core density on regular grids:               16.0000000000        0.0000000000
  Total charge density on r-space grids:       -0.0000000082
  Total charge density g-space grids:          -0.0000000082

     1 OT DIIS     0.15E+00    7.4     0.00000101       -37.7670484951 -8.08E-11

  Electronic density on regular grids:        -16.0000000082       -0.0000000082
  Core density on regular grids:               16.0000000000        0.0000000000
  Total charge density on r-space grids:       -0.0000000082
  Total charge density g-space grids:          -0.0000000082

     2 OT DIIS     0.15E+00    3.7     0.00000044       -37.7670484951 -6.41E-11

  *** SCF run converged in     2 steps ***


  Electronic density on regular grids:        -16.0000000082       -0.0000000082
  Core density on regular grids:               16.0000000000        0.0000000000
  Total charge density on r-space grids:       -0.0000000082
  Total charge density g-space grids:          -0.0000000082

  Overlap energy of the core charge distribution:               0.00000294879516
  Self energy of the core charge distribution:                -96.38742208476296
  Core Hamiltonian energy:                                     27.77530987024883
  Hartree energy:                                              39.51805826683482
  Exchange-correlation energy:                                 -8.67290489568792
  Dispersion energy:                                           -0.00009260055932

  Total energy:                                               -37.76704849513139

  outer SCF iter =    2 RMS gradient =   0.44E-06 energy =        -37.7670484951
  outer SCF loop converged in   2 iterations or   32 steps



 MULLIKEN POPULATION ANALYSIS

 # Atom  Element  Kind  Atomic population                Net charge
      1     O        1           6.301393                 -0.301393
      2     O        1           6.307059                 -0.307059
      3     C        2           3.391548                  0.608452
 # Total charge                 16.000000                  0.000000


 MOMENTS
  The electric moments are written to file:
  /usr/local/u/jmlarkin/CP2K/CdSe/vib/./MOMENTS-moments.dat


 LOCALIZE| The spread relative to a set of orbitals is computed
 LOCALIZE| Orbitals to be localized: All the occupied
 LOCALIZE| If fractional occupation, fully occupied MOs are those within occupation tolerance of       0.00000100
 LOCALIZE| Spread defined by the Berry phase operator 
 LOCALIZE| The optimal unitary transformation is generated by the Crazy angle algorithm
 LOCALIZE| maximum angle:       0.05000000
 LOCALIZE| scaling:       1.00000000
 LOCALIZE| use diag:F
  
  Eigenvalues of the occupied subspace spin            1
 ---------------------------------------------
      -1.07662540     -1.03978099     -0.50742443     -0.46796761
      -0.46796760     -0.46669572     -0.33410784     -0.33410783
 Fermi Energy [eV] :   -9.091536

 LOCALIZATION| Computing localization properties for OCCUPIED ORBITALS. Spin:  1
          Spread Functional     sum_in -w_i ln(|z_in|^2)    sum_in w_i(1-|z_in|^2)
    Initial Spread (Berry) :                  48.6062155351       42.2167366897
 CRAZY|   Iter            value        gradient   Max. eval       limit
 CRAZY|      1 662.829399035166      0.4044E+02  0.2314E+00  0.5000E-01
 CRAZY|      2 657.116938714668      0.4106E+02  0.1766E+00  0.5000E-01
 CRAZY|      3 651.233531124784      0.3866E+02  0.1528E+00  0.5000E-01
 CRAZY|      4 645.156547726194      0.3350E+02  0.1523E+00  0.5000E-01
 CRAZY|      5 638.908962786295      0.2907E+02  0.1520E+00  0.5000E-01
 CRAZY|      6 633.360478488894      0.3335E+02  0.1517E+00  0.5000E-01
 CRAZY|      7 629.166151836448      0.3524E+02  0.1514E+00  0.5000E-01
 CRAZY|      8 625.825744309296      0.3844E+02  0.1514E+00  0.5000E-01
 CRAZY|      9 622.748832266276      0.3894E+02  0.1531E+00  0.5000E-01
 CRAZY|     10 620.334945879362      0.3492E+02  0.1528E+00  0.5000E-01
 CRAZY|     11 618.231555260975      0.3304E+02  0.1523E+00  0.5000E-01
 CRAZY|     12 616.561585826884      0.2826E+02  0.7975E-01  0.5000E-01
 CRAZY|     13 615.131160418084      0.2335E+02  0.1004E+00  0.5000E-01
 CRAZY|     14 614.003156737457      0.1739E+02  0.8611E-01  0.5000E-01
 CRAZY|     15 613.177658742018      0.1111E+02  0.9284E-01  0.5000E-01
 CRAZY|     16 612.678482526017      0.4515E+01  0.8903E-01  0.5000E-01
 CRAZY|     17 612.510639403342      0.2484E+01  0.6618E-01  0.5000E-01
 CRAZY|     18 612.466648059244      0.1095E+01  0.3179E-01  0.5000E-01
 CRAZY|     19 612.455184577365      0.6530E+00  0.1809E-01  0.5000E-01
 CRAZY|     20 612.452158154159      0.2667E+00  0.7818E-02  0.5000E-01
 CRAZY|     21 612.451347210852      0.1785E+00  0.5085E-02  0.5000E-01
 CRAZY|     22 612.451119879642      0.6407E-01  0.2862E-02  0.5000E-01
 CRAZY|     23 612.451051005566      0.5173E-01  0.2229E-02  0.5000E-01
 CRAZY|     24 612.451027008384      0.3927E-01  0.1734E-02  0.5000E-01
 CRAZY|     25 612.451017105684      0.3109E-01  0.1351E-02  0.5000E-01
 CRAZY|     26 612.451012276328      0.2403E-01  0.1053E-02  0.5000E-01
 CRAZY|     27 612.451009654979      0.1910E-01  0.8211E-03  0.5000E-01
 CRAZY|     28 612.451008135444      0.1468E-01  0.6403E-03  0.5000E-01
 CRAZY|     29 612.451007230618      0.1175E-01  0.4994E-03  0.5000E-01
 CRAZY|     30 612.451006682868      0.8938E-02  0.3897E-03  0.5000E-01
 CRAZY|     31 612.451006349760      0.7246E-02  0.3040E-03  0.5000E-01
 CRAZY|     32 612.451006146174      0.5419E-02  0.2374E-03  0.5000E-01
 CRAZY|     33 612.451006021596      0.4488E-02  0.1852E-03  0.5000E-01
 CRAZY|     34 612.451005945107      0.3263E-02  0.1447E-03  0.5000E-01
 CRAZY|     35 612.451005898025      0.2800E-02  0.1129E-03  0.5000E-01
 CRAZY|     36 612.451005868887      0.1943E-02  0.8827E-04  0.5000E-01
 CRAZY|     37 612.451005850726      0.1767E-02  0.6880E-04  0.5000E-01
 CRAZY|     38 612.451005839265      0.1135E-02  0.5388E-04  0.5000E-01
 CRAZY|     39 612.451005831904      0.1135E-02  0.4195E-04  0.5000E-01
 CRAZY|     40 612.451005827049      0.6707E-03  0.3291E-04  0.5000E-01
 CRAZY|     41 612.451005823727      0.7480E-03  0.2557E-04  0.5000E-01
 CRAZY|     42 612.451005821342      0.4612E-03  0.2012E-04  0.5000E-01
 CRAZY|     43 612.451005819529      0.5113E-03  0.1558E-04  0.5000E-01
 CRAZY|     44 612.451005818067      0.3337E-03  0.1232E-04  0.5000E-01
 CRAZY|     45 612.451005816815      0.3666E-03  0.9493E-05  0.5000E-01
 CRAZY|     46 612.451005815699      0.2561E-03  0.7762E-05  0.5000E-01
 CRAZY|     47 612.451005814661      0.2780E-03  0.7481E-05  0.5000E-01
 CRAZY|     48 612.451005813671      0.2087E-03  0.6453E-05  0.5000E-01
 CRAZY|     49 612.451005812710      0.2239E-03  0.6252E-05  0.5000E-01
 CRAZY|     50 612.451005811767      0.1799E-03  0.5653E-05  0.5000E-01
 CRAZY|     51 612.451005810837      0.1908E-03  0.5501E-05  0.5000E-01
 CRAZY|     52 612.451005809915      0.1623E-03  0.5165E-05  0.5000E-01
 CRAZY|     53 612.451005808996      0.1705E-03  0.5042E-05  0.5000E-01
 CRAZY|     54 612.451005808082      0.1516E-03  0.4867E-05  0.5000E-01
 CRAZY|     55 612.451005807168      0.1582E-03  0.4761E-05  0.5000E-01
 CRAZY|     56 612.451005806255      0.1450E-03  0.4685E-05  0.5000E-01
 CRAZY|     57 612.451005805343      0.1506E-03  0.4594E-05  0.5000E-01
 CRAZY|     58 612.451005804433      0.1410E-03  0.4600E-05  0.5000E-01
 CRAZY|     59 612.451005803523      0.1460E-03  0.4523E-05  0.5000E-01
 CRAZY|     60 612.451005802612      0.1385E-03  0.4551E-05  0.5000E-01
 CRAZY|     61 612.451005801700      0.1431E-03  0.4524E-05  0.5000E-01
 CRAZY|     62 612.451005800789      0.1370E-03  0.4530E-05  0.5000E-01
 CRAZY|     63 612.451005799878      0.1414E-03  0.4525E-05  0.5000E-01
 CRAZY|     64 612.451005798967      0.1365E-03  0.4529E-05  0.5000E-01
 CRAZY|     65 612.451005798056      0.1403E-03  0.4526E-05  0.5000E-01
 CRAZY|     66 612.451005797144      0.1374E-03  0.4528E-05  0.5000E-01
 CRAZY|     67 612.451005796234      0.1397E-03  0.4526E-05  0.5000E-01
 CRAZY|     68 612.451005795323      0.1379E-03  0.4527E-05  0.5000E-01
 CRAZY|     69 612.451005794411      0.1393E-03  0.4526E-05  0.5000E-01
 CRAZY|     70 612.451005793501      0.1382E-03  0.4527E-05  0.5000E-01
 CRAZY|     71 612.451005792591      0.1390E-03  0.4526E-05  0.5000E-01
 CRAZY|     72 612.451005791681      0.1384E-03  0.4526E-05  0.5000E-01
 CRAZY|     73 612.451005790770      0.1389E-03  0.4526E-05  0.5000E-01
 CRAZY|     74 612.451005789861      0.1385E-03  0.4526E-05  0.5000E-01
 CRAZY|     75 612.451005788951      0.1388E-03  0.4526E-05  0.5000E-01
 CRAZY|     76 612.451005788043      0.1385E-03  0.4526E-05  0.5000E-01
 CRAZY|     77 612.451005787136      0.1387E-03  0.4525E-05  0.5000E-01
 CRAZY|     78 612.451005786228      0.1386E-03  0.4526E-05  0.5000E-01
 CRAZY|     79 612.451005785319      0.1387E-03  0.4525E-05  0.5000E-01
 CRAZY|     80 612.451005784412      0.1386E-03  0.4525E-05  0.5000E-01
 CRAZY|     81 612.451005783503      0.1386E-03  0.4525E-05  0.5000E-01
 CRAZY|     82 612.451005782594      0.1386E-03  0.4525E-05  0.5000E-01
 CRAZY|     83 612.451005781684      0.1386E-03  0.4525E-05  0.5000E-01
 CRAZY|     84 612.451005780776      0.1386E-03  0.4525E-05  0.5000E-01
 CRAZY|     85 612.451005779867      0.1386E-03  0.4525E-05  0.5000E-01
 CRAZY|     86 612.451005778960      0.1386E-03  0.4525E-05  0.5000E-01
 CRAZY|     87 612.451005778052      0.1386E-03  0.4524E-05  0.5000E-01
 CRAZY|     88 612.451005777144      0.1386E-03  0.4524E-05  0.5000E-01
 CRAZY|     89 612.451005776237      0.1386E-03  0.4524E-05  0.5000E-01
 CRAZY|     90 612.451005775329      0.1386E-03  0.4524E-05  0.5000E-01
 CRAZY|     91 612.451005774420      0.1386E-03  0.4524E-05  0.5000E-01
 CRAZY|     92 612.451005773511      0.1386E-03  0.4524E-05  0.5000E-01
 CRAZY|     93 612.451005772602      0.1386E-03  0.4524E-05  0.5000E-01
 CRAZY|     94 612.451005771695      0.1386E-03  0.4524E-05  0.5000E-01
 CRAZY|     95 612.451005770786      0.1386E-03  0.4524E-05  0.5000E-01
 CRAZY|     96 612.451005769878      0.1386E-03  0.4523E-05  0.5000E-01
 CRAZY|     97 612.451005768968      0.1386E-03  0.4523E-05  0.5000E-01
 CRAZY|     98 612.451005768060      0.1386E-03  0.4523E-05  0.5000E-01
 CRAZY|     99 612.451005767153      0.1386E-03  0.4523E-05  0.5000E-01
 CRAZY|    100 612.451005766245      0.1386E-03  0.4523E-05  0.5000E-01
 CRAZY|    101 612.451005765337      0.1385E-03  0.4523E-05  0.5000E-01
 CRAZY|    102 612.451005764430      0.1385E-03  0.4523E-05  0.5000E-01
 CRAZY|    103 612.451005763521      0.1385E-03  0.4523E-05  0.5000E-01
 CRAZY|    104 612.451005762611      0.1385E-03  0.4523E-05  0.5000E-01
 CRAZY|    105 612.451005761702      0.1385E-03  0.4522E-05  0.5000E-01
 CRAZY|    106 612.451005760794      0.1385E-03  0.4522E-05  0.5000E-01
 CRAZY|    107 612.451005759885      0.1385E-03  0.4522E-05  0.5000E-01
 CRAZY|    108 612.451005758976      0.1385E-03  0.4522E-05  0.5000E-01
 CRAZY|    109 612.451005758068      0.1385E-03  0.4522E-05  0.5000E-01
 CRAZY|    110 612.451005757161      0.1385E-03  0.4522E-05  0.5000E-01
 CRAZY|    111 612.451005756251      0.1385E-03  0.4522E-05  0.5000E-01
 CRAZY|    112 612.451005755343      0.1385E-03  0.4522E-05  0.5000E-01
 CRAZY|    113 612.451005754436      0.1385E-03  0.4522E-05  0.5000E-01
 CRAZY|    114 612.451005753530      0.1385E-03  0.4521E-05  0.5000E-01
 CRAZY|    115 612.451005752621      0.1385E-03  0.4521E-05  0.5000E-01
 CRAZY|    116 612.451005751714      0.1385E-03  0.4521E-05  0.5000E-01
 CRAZY|    117 612.451005750808      0.1385E-03  0.4521E-05  0.5000E-01
 CRAZY|    118 612.451005749899      0.1385E-03  0.4521E-05  0.5000E-01
 CRAZY|    119 612.451005748991      0.1385E-03  0.4521E-05  0.5000E-01
 CRAZY|    120 612.451005748085      0.1385E-03  0.4521E-05  0.5000E-01
 CRAZY|    121 612.451005747177      0.1385E-03  0.4521E-05  0.5000E-01
 CRAZY|    122 612.451005746268      0.1385E-03  0.4521E-05  0.5000E-01
 CRAZY|    123 612.451005745362      0.1385E-03  0.4520E-05  0.5000E-01
 CRAZY|    124 612.451005744453      0.1385E-03  0.4520E-05  0.5000E-01
 CRAZY|    125 612.451005743547      0.1385E-03  0.4520E-05  0.5000E-01
 CRAZY|    126 612.451005742640      0.1385E-03  0.4520E-05  0.5000E-01
 CRAZY|    127 612.451005741732      0.1385E-03  0.4520E-05  0.5000E-01
 CRAZY|    128 612.451005740825      0.1385E-03  0.4520E-05  0.5000E-01
 CRAZY|    129 612.451005739917      0.1385E-03  0.4520E-05  0.5000E-01
 CRAZY|    130 612.451005739011      0.1385E-03  0.4520E-05  0.5000E-01
 CRAZY|    131 612.451005738103      0.1384E-03  0.4520E-05  0.5000E-01
 CRAZY|    132 612.451005737198      0.1384E-03  0.4519E-05  0.5000E-01
 CRAZY|    133 612.451005736290      0.1384E-03  0.4519E-05  0.5000E-01
 CRAZY|    134 612.451005735384      0.1384E-03  0.4519E-05  0.5000E-01
 CRAZY|    135 612.451005734477      0.1384E-03  0.4519E-05  0.5000E-01
 CRAZY|    136 612.451005733572      0.1384E-03  0.4519E-05  0.5000E-01
 CRAZY|    137 612.451005732666      0.1384E-03  0.4519E-05  0.5000E-01
 CRAZY|    138 612.451005731761      0.1384E-03  0.4519E-05  0.5000E-01
[...]
 CRAZY|   1857 613.802166952733      0.2038E-03  0.6712E-05  0.5000E-01
 CRAZY|   1858 613.802166950740      0.2038E-03  0.6712E-05  0.5000E-01
 CRAZY|   1859 613.802166948746      0.2038E-03  0.6712E-05  0.5000E-01
 CRAZY|   1860 613.802166946752      0.2038E-03  0.6713E-05  0.5000E-01
 CRAZY|   1861 613.802166944759      0.2038E-03  0.6713E-05  0.5000E-01
 CRAZY|   1862 613.802166942766      0.2038E-03  0.6713E-05  0.5000E-01
 CRAZY|   1863 613.802166940774      0.2038E-03  0.6713E-05  0.5000E-01
 CRAZY|   1864 613.802166938781      0.2038E-03  0.6713E-05  0.5000E-01
 CRAZY|   1865 613.802166936789      0.2038E-03  0.6713E-05  0.5000E-01
 CRAZY|   1866 613.802166934795      0.2039E-03  0.6713E-05  0.5000E-01
 CRAZY|   1867 613.802166932801      0.2039E-03  0.6714E-05  0.5000E-01
 CRAZY|   1868 613.802166930806      0.2039E-03  0.6714E-05  0.5000E-01
 CRAZY|   1869 613.802166928812      0.2039E-03  0.6714E-05  0.5000E-01
 CRAZY|   1870 613.802166926815      0.2039E-03  0.6714E-05  0.5000E-01
 CRAZY|   1871 613.802166924820      0.2039E-03  0.6714E-05  0.5000E-01
 CRAZY|   1872 613.802166922825      0.2039E-03  0.6714E-05  0.5000E-01
 CRAZY|   1873 613.802166920830      0.2039E-03  0.6714E-05  0.5000E-01
 CRAZY|   1874 613.802166918835      0.2039E-03  0.6715E-05  0.5000E-01
 CRAZY|   1875 613.802166916839      0.2039E-03  0.6715E-05  0.5000E-01
 CRAZY|   1876 613.802166914845      0.2039E-03  0.6715E-05  0.5000E-01
 CRAZY|   1877 613.802166912848      0.2039E-03  0.6715E-05  0.5000E-01
 CRAZY|   1878 613.802166910855      0.2039E-03  0.6715E-05  0.5000E-01
 CRAZY|   1879 613.802166908860      0.2039E-03  0.6715E-05  0.5000E-01
 CRAZY|   1880 613.802166906866      0.2039E-03  0.6715E-05  0.5000E-01
 CRAZY|   1881 613.802166904870      0.2039E-03  0.6715E-05  0.5000E-01
 CRAZY|   1882 613.802166902875      0.2039E-03  0.6716E-05  0.5000E-01
 CRAZY|   1883 613.802166900880      0.2039E-03  0.6716E-05  0.5000E-01
 CRAZY|   1884 613.802166898885      0.2039E-03  0.6716E-05  0.5000E-01
 CRAZY|   1885 613.802166896890      0.2039E-03  0.6716E-05  0.5000E-01
 CRAZY|   1886 613.802166894894      0.2039E-03  0.6716E-05  0.5000E-01
 CRAZY|   1887 613.802166892897      0.2039E-03  0.6716E-05  0.5000E-01
 CRAZY|   1888 613.802166890900      0.2039E-03  0.6716E-05  0.5000E-01
 CRAZY|   1889 613.802166888905      0.2039E-03  0.6717E-05  0.5000E-01
 CRAZY|   1890 613.802166886907      0.2040E-03  0.6717E-05  0.5000E-01
 CRAZY|   1891 613.802166884911      0.2040E-03  0.6717E-05  0.5000E-01
 CRAZY|   1892 613.802166882913      0.2040E-03  0.6717E-05  0.5000E-01
 CRAZY|   1893 613.802166880917      0.2040E-03  0.6717E-05  0.5000E-01
 CRAZY|   1894 613.802166878920      0.2040E-03  0.6717E-05  0.5000E-01
 CRAZY|   1895 613.802166876924      0.2040E-03  0.6717E-05  0.5000E-01
 CRAZY|   1896 613.802166874927      0.2040E-03  0.6718E-05  0.5000E-01
 CRAZY|   1897 613.802166872931      0.2040E-03  0.6718E-05  0.5000E-01
 CRAZY|   1898 613.802166870934      0.2040E-03  0.6718E-05  0.5000E-01
 CRAZY|   1899 613.802166868936      0.2040E-03  0.6718E-05  0.5000E-01
 CRAZY|   1900 613.802166866940      0.2040E-03  0.6718E-05  0.5000E-01
 CRAZY|   1901 613.802166864943      0.2040E-03  0.6718E-05  0.5000E-01
 CRAZY|   1902 613.802166862946      0.2040E-03  0.6718E-05  0.5000E-01
 CRAZY|   1903 613.802166860948      0.2040E-03  0.6719E-05  0.5000E-01
 CRAZY|   1904 613.802166858951      0.2040E-03  0.6719E-05  0.5000E-01
 CRAZY|   1905 613.802166856954      0.2040E-03  0.6719E-05  0.5000E-01
 CRAZY|   1906 613.802166854956      0.2040E-03  0.6719E-05  0.5000E-01
 CRAZY|   1907 613.802166852956      0.2040E-03  0.6719E-05  0.5000E-01
 CRAZY|   1908 613.802166850958      0.2040E-03  0.6719E-05  0.5000E-01
 CRAZY|   1909 613.802166848961      0.2040E-03  0.6719E-05  0.5000E-01
 CRAZY|   1910 613.802166846964      0.2040E-03  0.6719E-05  0.5000E-01
 CRAZY|   1911 613.802166844965      0.2040E-03  0.6720E-05  0.5000E-01
 CRAZY|   1912 613.802166842967      0.2040E-03  0.6720E-05  0.5000E-01
 CRAZY|   1913 613.802166840970      0.2041E-03  0.6720E-05  0.5000E-01
 CRAZY|   1914 613.802166838971      0.2041E-03  0.6720E-05  0.5000E-01
 CRAZY|   1915 613.802166836970      0.2041E-03  0.6720E-05  0.5000E-01
 CRAZY|   1916 613.802166834972      0.2041E-03  0.6720E-05  0.5000E-01
 CRAZY|   1917 613.802166832972      0.2041E-03  0.6720E-05  0.5000E-01
 CRAZY|   1918 613.802166830974      0.2041E-03  0.6721E-05  0.5000E-01
 CRAZY|   1919 613.802166828975      0.2041E-03  0.6721E-05  0.5000E-01
 CRAZY|   1920 613.802166826976      0.2041E-03  0.6721E-05  0.5000E-01
 CRAZY|   1921 613.802166824977      0.2041E-03  0.6721E-05  0.5000E-01
 CRAZY|   1922 613.802166822976      0.2041E-03  0.6721E-05  0.5000E-01
 CRAZY|   1923 613.802166820978      0.2041E-03  0.6721E-05  0.5000E-01
 CRAZY|   1924 613.802166818978      0.2041E-03  0.6721E-05  0.5000E-01
 CRAZY|   1925 613.802166816979      0.2041E-03  0.6722E-05  0.5000E-01
 CRAZY|   1926 613.802166814980      0.2041E-03  0.6722E-05  0.5000E-01
 CRAZY|   1927 613.802166812980      0.2041E-03  0.6722E-05  0.5000E-01
 CRAZY|   1928 613.802166810980      0.2041E-03  0.6722E-05  0.5000E-01
 CRAZY|   1929 613.802166808978      0.2041E-03  0.6722E-05  0.5000E-01
 CRAZY|   1930 613.802166806977      0.2041E-03  0.6722E-05  0.5000E-01
 CRAZY|   1931 613.802166804979      0.2041E-03  0.6722E-05  0.5000E-01
 CRAZY|   1932 613.802166802978      0.2041E-03  0.6722E-05  0.5000E-01
 CRAZY|   1933 613.802166800979      0.2041E-03  0.6723E-05  0.5000E-01
 CRAZY|   1934 613.802166798979      0.2041E-03  0.6723E-05  0.5000E-01
 CRAZY|   1935 613.802166796979      0.2041E-03  0.6723E-05  0.5000E-01
 CRAZY|   1936 613.802166794977      0.2041E-03  0.6723E-05  0.5000E-01
 CRAZY|   1937 613.802166792977      0.2042E-03  0.6723E-05  0.5000E-01
 CRAZY|   1938 613.802166790978      0.2042E-03  0.6723E-05  0.5000E-01
 CRAZY|   1939 613.802166788978      0.2042E-03  0.6723E-05  0.5000E-01
 CRAZY|   1940 613.802166786979      0.2042E-03  0.6724E-05  0.5000E-01
 CRAZY|   1941 613.802166784980      0.2042E-03  0.6724E-05  0.5000E-01
 CRAZY|   1942 613.802166782979      0.2042E-03  0.6724E-05  0.5000E-01
 CRAZY|   1943 613.802166780979      0.2042E-03  0.6724E-05  0.5000E-01
 CRAZY|   1944 613.802166778977      0.2042E-03  0.6724E-05  0.5000E-01
 CRAZY|   1945 613.802166776977      0.2042E-03  0.6724E-05  0.5000E-01
 CRAZY|   1946 613.802166774975      0.2042E-03  0.6724E-05  0.5000E-01
 CRAZY|   1947 613.802166772974      0.2042E-03  0.6725E-05  0.5000E-01
 CRAZY|   1948 613.802166770972      0.2042E-03  0.6725E-05  0.5000E-01
 CRAZY|   1949 613.802166768969      0.2042E-03  0.6725E-05  0.5000E-01
 CRAZY|   1950 613.802166766967      0.2042E-03  0.6725E-05  0.5000E-01
 CRAZY|   1951 613.802166764965      0.2042E-03  0.6725E-05  0.5000E-01
 CRAZY|   1952 613.802166762963      0.2042E-03  0.6725E-05  0.5000E-01
 CRAZY|   1953 613.802166760962      0.2042E-03  0.6725E-05  0.5000E-01
 CRAZY|   1954 613.802166758959      0.2042E-03  0.6726E-05  0.5000E-01
 CRAZY|   1955 613.802166756958      0.2042E-03  0.6726E-05  0.5000E-01
 CRAZY|   1956 613.802166754957      0.2042E-03  0.6726E-05  0.5000E-01
 CRAZY|   1957 613.802166752955      0.2042E-03  0.6726E-05  0.5000E-01
 CRAZY|   1958 613.802166750953      0.2042E-03  0.6726E-05  0.5000E-01
 CRAZY|   1959 613.802166748951      0.2042E-03  0.6726E-05  0.5000E-01
 CRAZY|   1960 613.802166746948      0.2043E-03  0.6726E-05  0.5000E-01
 CRAZY|   1961 613.802166744946      0.2043E-03  0.6726E-05  0.5000E-01
 CRAZY|   1962 613.802166742943      0.2043E-03  0.6727E-05  0.5000E-01
 CRAZY|   1963 613.802166740940      0.2043E-03  0.6727E-05  0.5000E-01
 CRAZY|   1964 613.802166738934      0.2043E-03  0.6727E-05  0.5000E-01
 CRAZY|   1965 613.802166736931      0.2043E-03  0.6727E-05  0.5000E-01
 CRAZY|   1966 613.802166734929      0.2043E-03  0.6727E-05  0.5000E-01
 CRAZY|   1967 613.802166732926      0.2043E-03  0.6727E-05  0.5000E-01
 CRAZY|   1968 613.802166730922      0.2043E-03  0.6727E-05  0.5000E-01
 CRAZY|   1969 613.802166728917      0.2043E-03  0.6728E-05  0.5000E-01
 CRAZY|   1970 613.802166726913      0.2043E-03  0.6728E-05  0.5000E-01
 CRAZY|   1971 613.802166724908      0.2043E-03  0.6728E-05  0.5000E-01
 CRAZY|   1972 613.802166722905      0.2043E-03  0.6728E-05  0.5000E-01
 CRAZY|   1973 613.802166720902      0.2043E-03  0.6728E-05  0.5000E-01
 CRAZY|   1974 613.802166718898      0.2043E-03  0.6728E-05  0.5000E-01
 CRAZY|   1975 613.802166716895      0.2043E-03  0.6728E-05  0.5000E-01
 CRAZY|   1976 613.802166714890      0.2043E-03  0.6728E-05  0.5000E-01
 CRAZY|   1977 613.802166712887      0.2043E-03  0.6729E-05  0.5000E-01
 CRAZY|   1978 613.802166710883      0.2043E-03  0.6729E-05  0.5000E-01
 CRAZY|   1979 613.802166708879      0.2043E-03  0.6729E-05  0.5000E-01
 CRAZY|   1980 613.802166706873      0.2043E-03  0.6729E-05  0.5000E-01
 CRAZY|   1981 613.802166704868      0.2043E-03  0.6729E-05  0.5000E-01
 CRAZY|   1982 613.802166702864      0.2043E-03  0.6729E-05  0.5000E-01
 CRAZY|   1983 613.802166700857      0.2043E-03  0.6729E-05  0.5000E-01
 CRAZY|   1984 613.802166698851      0.2044E-03  0.6730E-05  0.5000E-01
 CRAZY|   1985 613.802166696845      0.2044E-03  0.6730E-05  0.5000E-01
 CRAZY|   1986 613.802166694839      0.2044E-03  0.6730E-05  0.5000E-01
 CRAZY|   1987 613.802166692833      0.2044E-03  0.6730E-05  0.5000E-01
 CRAZY|   1988 613.802166690829      0.2044E-03  0.6730E-05  0.5000E-01
 CRAZY|   1989 613.802166688822      0.2044E-03  0.6730E-05  0.5000E-01
 CRAZY|   1990 613.802166686818      0.2044E-03  0.6730E-05  0.5000E-01
 CRAZY|   1991 613.802166684813      0.2044E-03  0.6731E-05  0.5000E-01
 CRAZY|   1992 613.802166682808      0.2044E-03  0.6731E-05  0.5000E-01
 CRAZY|   1993 613.802166680802      0.2044E-03  0.6731E-05  0.5000E-01
 CRAZY|   1994 613.802166678796      0.2044E-03  0.6731E-05  0.5000E-01
 CRAZY|   1995 613.802166676789      0.2044E-03  0.6731E-05  0.5000E-01
 CRAZY|   1996 613.802166674783      0.2044E-03  0.6731E-05  0.5000E-01
 CRAZY|   1997 613.802166672776      0.2044E-03  0.6731E-05  0.5000E-01
 CRAZY|   1998 613.802166670769      0.2044E-03  0.6731E-05  0.5000E-01
 CRAZY|   1999 613.802166668764      0.2044E-03  0.6732E-05  0.5000E-01
 CRAZY|   2000 613.802166666757      0.2044E-03  0.6732E-05  0.5000E-01
 Crazy Wannier localization not converged after   2000 iterations, switching to jacobi rotations
         Localization by iterative Jacobi rotation
                      Iteration           Tolerance   Time 
                            100          0.4016E-03   0.000
                            200          0.4031E-03   0.000
                            300          0.4046E-03   0.000
                            400          0.4060E-03   0.000
                            500          0.4074E-03   0.000
                            600          0.4087E-03   0.000
                            700          0.4099E-03   0.000
                            800          0.4111E-03   0.000
                            900          0.4123E-03   0.000
                           1000          0.4134E-03   0.000
                           1100          0.4144E-03   0.000
                           1200          0.4154E-03   0.000
                           1300          0.4163E-03   0.000
                           1400          0.4172E-03   0.000
                           1500          0.4180E-03   0.000
                           1600          0.4187E-03   0.000
                           1700          0.4194E-03   0.000
                           1800          0.4200E-03   0.000
                           1900          0.4206E-03   0.000
                           2000          0.4211E-03   0.000
               Localization  for spin   1 converged in   2000 iterations
          Spread Functional     sum_in -w_i ln(|z_in|^2)    sum_in w_i(1-|z_in|^2)
    Total Spread (Berry) :                  16.0353645721       15.5477902930

  Electronic density on regular grids:        -16.0000000093       -0.0000000093
  Core density on regular grids:               16.0000000000        0.0000000000
  Total charge density on r-space grids:       -0.0000000093
  Total charge density g-space grids:          -0.0000000093


 ENERGY| Total FORCE_EVAL ( QS ) energy (a.u.):              -37.767200349549114


 -------------------------------------------------------------------------------
 ----                             MULTIGRID INFO                            ----
 -------------------------------------------------------------------------------
 count for grid        1:          24216          cutoff [a.u.]          175.00
 count for grid        2:          15952          cutoff [a.u.]           58.33
 count for grid        3:          11592          cutoff [a.u.]           19.44
 count for grid        4:           4728          cutoff [a.u.]            6.48
 count for grid        5:            524          cutoff [a.u.]            2.16
 total gridlevel count  :          57012

 -------------------------------------------------------------------------------
 -                                                                             -
 -                         MESSAGE PASSING PERFORMANCE                         -
 -                                                                             -
 -------------------------------------------------------------------------------

 ROUTINE             CALLS  TOT TIME [s]  AVE VOLUME [Bytes]  PERFORMANCE [MB/s]
 MP_Group                6         0.000
 MP_Bcast              341         0.001                 10.                3.77
 MP_Allreduce        24471        11.880                 27.                0.06
 MP_Sync                 5         0.000
 -------------------------------------------------------------------------------


 -------------------------------------------------------------------------------
 -                                                                             -
 -                           R E F E R E N C E S                               -
 -                                                                             -
 -------------------------------------------------------------------------------
 
 CP2K version 2.2.107 (Development Version), the CP2K developers group (2011).
 CP2K is freely available from http://cp2k.berlios.de/ .

 Grimme, S. 
 JOURNAL OF COMPUTATIONAL CHEMISTRY, 27 (15), 1787-1799 (2006). 
 Semiempirical GGA-type density functional constructed with a long-range
 dispersion correction.
 http://dx.doi.org/10.1002/jcc.20495


 Krack, M. 
 THEORETICAL CHEMISTRY ACCOUNTS, 114 (1-3), 145-152 (2005). 
 Pseudopotentials for H to Kr optimized for gradient-corrected
 exchange-correlation functionals.
 http://dx.doi.org/10.1007/s00214-005-0655-y


 VandeVondele, J; Krack, M; Mohamed, F; Parrinello, M; Chassaing, T;
 Hutter, J. COMPUTER PHYSICS COMMUNICATIONS, 167 (2), 103-128 (2005). 
 QUICKSTEP: Fast and accurate density functional calculations using a
 mixed Gaussian and plane waves approach.
 http://dx.doi.org/10.1016/j.cpc.2004.12.014


 Frigo, M; Johnson, SG. 
 PROCEEDINGS OF THE IEEE, 93 (2), 216-231 (2005). 
 The design and implementation of FFTW3.
 http://dx.doi.org/10.1109/JPROC.2004.840301


 VandeVondele, J; Hutter, J. 
 JOURNAL OF CHEMICAL PHYSICS, 118 (10), 4365-4369 (2003). 
 An efficient orbital transformation method for electronic structure
 calculations.
 http://dx.doi.org/10.1063/1.1543154


 Martyna, GJ; Tuckerman, ME. 
 JOURNAL OF CHEMICAL PHYSICS, 110 (6), 2810-2821 (1999). 
 A reciprocal space based method for treating long range interactions in
 ab initio and force-field-based calculations in clusters.
 http://dx.doi.org/10.1063/1.477923


 Hartwigsen, C; Goedecker, S; Hutter, J. 
 PHYSICAL REVIEW B, 58 (7), 3641-3662 (1998). 
 Relativistic separable dual-space Gaussian pseudopotentials from H to Rn.
 http://dx.doi.org/10.1103/PhysRevB.58.3641


 Lippert, G; Hutter, J; Parrinello, M. 
 MOLECULAR PHYSICS, 92 (3), 477-487 (1997). 
 A hybrid Gaussian and plane wave density functional scheme.
 http://dx.doi.org/10.1080/002689797170220


 Perdew, JP; Burke, K; Ernzerhof, M. 
 PHYSICAL REVIEW LETTERS, 77 (18), 3865-3868 (1996). 
 Generalized gradient approximation made simple.
 http://dx.doi.org/10.1103/PhysRevLett.77.3865


 Goedecker, S; Teter, M; Hutter, J. 
 PHYSICAL REVIEW B, 54 (3), 1703-1710 (1996). 
 Separable dual-space Gaussian pseudopotentials.
 http://dx.doi.org/10.1103/PhysRevB.54.1703


 -------------------------------------------------------------------------------
 -                                                                             -
 -                                T I M I N G                                  -
 -                                                                             -
 -------------------------------------------------------------------------------
 SUBROUTINE                       CALLS  ASD         SELF TIME        TOTAL TIME
                                              AVERAGE  MAXIMUM  AVERAGE  MAXIMUM
 CP2K                                 1  1.0    0.185    0.185  241.111  241.111
 rep_env_calc_e_f                     4  2.0    0.017    0.017  238.002  238.002
 qs_forces                            4  3.0    0.000    0.000  226.148  226.148
 qs_energies_scf                      4  4.0    0.091    0.091  214.663  214.663
 scf_env_do_scf                       4  5.0    0.008    0.008  204.764  204.764
 scf_env_do_scf_inner_loop           52  6.0    0.032    0.032  185.411  185.411
 qs_ks_build_kohn_sham_matrix        56  7.8    1.135    1.135  184.603  184.603
 qs_ks_update_qs_env                 57  7.0    0.000    0.000  173.153  173.153
 fft_wrap_pw1pw2                   1069 10.6    0.018    0.018  147.538  147.538
 qs_vxc_create                       56  8.8    0.039    0.039  144.187  144.187
 xc_vxc_pw_create                    56  9.8    2.474    2.474  144.148  144.148
 fft_wrap_pw1pw2_180                620 11.7    7.935    7.935  141.442  141.442
 fft3d_s                           1071 12.6  105.438  105.438  105.441  105.441
 xc_rho_set_and_dset_create          56 10.8    3.287    3.287   83.077   83.077
 xc_functional_eval                  56 11.8    0.027    0.027   36.066   36.066
 pbe_lda_eval                        56 12.8   36.039   36.039   36.039   36.039
 qs_rho_update_rho                   56  7.1    0.001    0.001   33.417   33.417
 calculate_rho_elec                  56  8.1    1.435    1.435   33.416   33.416
 density_rs2pw                       56  9.1    0.060    0.060   31.076   31.076
 init_scf_loop                        5  6.0    0.053    0.053   19.343   19.343
 integrate_v_rspace                  56  8.8    1.132    1.132   18.984   18.984
 potential_pw2rs                     56  9.8    0.186    0.186   17.842   17.842
 pw_gather_s                        509 12.4   17.421   17.421   17.421   17.421
 pw_scatter_s                       560 12.8   16.274   16.274   16.274   16.274
 rep_env_sync                         7  2.6   11.851   11.851   11.851   11.851
 qs_ks_update_qs_env_forces           4  4.0    0.000    0.000   11.453   11.453
 pw_derive                          336 11.3    8.586    8.586    8.586    8.586
 pw_copy                            672 10.8    6.341    6.341    6.341    6.341
 pw_poisson_solve                    56  8.8    2.873    2.873    5.763    5.763
 -------------------------------------------------------------------------------

  **** **** ******  **  PROGRAM ENDED AT                 2011-08-14 10:30:32.088
 ***** ** ***  *** **   PROGRAM RAN ON                                  r11i3n15
 **    ****   ******    PROGRAM RAN BY                                          
 ***** **    ** ** **   PROGRAM PROCESS ID                                   705
  **** **  *******  **  PROGRAM STOPPED IN   /usr/local/u/jmlarkin/CP2K/CdSe/vib
