
  **** **** ******  **  PROGRAM STARTED AT               2011-08-14 10:26:23.936
 ***** ** ***  *** **   PROGRAM STARTED ON                              r11i3n15
 **    ****   ******    PROGRAM STARTED BY                                      
 ***** **    ** ** **   PROGRAM PROCESS ID                                   706
  **** **  *******  **  PROGRAM STARTED IN   /usr/local/u/jmlarkin/CP2K/CdSe/vib

 CP2K| version string:                CP2K version 2.2.107 (Development Version)
 CP2K| is freely available from                          http://cp2k.berlios.de/
 CP2K| Program compiled at                          Tue Jun  7 13:15:52 CDT 2011
 CP2K| Program compiled on                                             diamond01
 CP2K| Program compiled for                                   Linux-x86-64-intel
 CP2K| Last CVS entry                 cp2k_info.F/1.511/Wed Jan 19 04:35:13 2011
 CP2K| Input file name                                              temp-r-1.inp
 
 GLOBAL| Force Environment number                                              1
 GLOBAL| Basis set file name            /usr/local/u/jmlarkin/CP2K/CdSe/vib/GTH_
 GLOBAL| Geminal file name                                         BASIS_GEMINAL
 GLOBAL| Potential file name            /usr/local/u/jmlarkin/CP2K/CdSe/vib/POTE
 GLOBAL| MM Potential file name                                     MM_POTENTIAL
 GLOBAL| Coordinate file name                                      __STD_INPUT__
 GLOBAL| Method name                                                        CP2K
 GLOBAL| Project name                                                   temp-r-1
 GLOBAL| Preferred FFT library                                             FFTW3
 GLOBAL| Run type                                           VIBRATIONAL_ANALYSIS
 GLOBAL| All-to-all communication in single precision                          F
 GLOBAL| FFTs using library dependent lengths                                  F
 GLOBAL| Global print level                                               MEDIUM
 GLOBAL| Total number of message passing processes                             1
 GLOBAL| Number of threads for this process                                    1
 GLOBAL| This output is from process                                           0

 MEMORY| system memory details [Kb]
 MEMORY|                        rank 0           min           max       average
 MEMORY| MemTotal                    0             0             0             0
 MEMORY| MemFree                     0             0             0             0
 MEMORY| Buffers                     0             0             0             0
 MEMORY| Cached                      0             0             0             0
 MEMORY| Slab                        0             0             0             0
 MEMORY| SReclaimable                0             0             0             0
 MEMORY| MemLikelyFree               0             0             0             0

 WARNING : FFT library FFTW3 is not available  Trying FFTSG as a default

 *** Fundamental physical constants (SI units) ***

 *** Literature: B. J. Mohr and B. N. Taylor,
 ***             CODATA recommended values of the fundamental physical
 ***             constants: 2006, Web Version 5.1
 ***             http://physics.nist.gov/constants

 Speed of light in vacuum [m/s]                             2.99792458000000E+08
 Magnetic constant or permeability of vacuum [N/A**2]       1.25663706143592E-06
 Electric constant or permittivity of vacuum [F/m]          8.85418781762039E-12
 Planck constant (h) [J*s]                                  6.62606896000000E-34
 Planck constant (h-bar) [J*s]                              1.05457162825177E-34
 Elementary charge [C]                                      1.60217648700000E-19
 Electron mass [kg]                                         9.10938215000000E-31
 Electron g factor [ ]                                     -2.00231930436220E+00
 Proton mass [kg]                                           1.67262163700000E-27
 Fine-structure constant                                    7.29735253760000E-03
 Rydberg constant [1/m]                                     1.09737315685270E+07
 Avogrado constant [1/mol]                                  6.02214179000000E+23
 Boltzmann constant [J/K]                                   1.38065040000000E-23
 Atomic mass unit [kg]                                      1.66053878200000E-27
 Bohr radius [m]                                            5.29177208590000E-11

 *** Conversion factors ***

 [u] -> [a.u.]                                              1.82288848426455E+03
 [Angstrom] -> [Bohr] = [a.u.]                              1.88972613288564E+00
 [a.u.] = [Bohr] -> [Angstrom]                              5.29177208590000E-01
 [a.u.] -> [s]                                              2.41888432650478E-17
 [a.u.] -> [fs]                                             2.41888432650478E-02
 [a.u.] -> [J]                                              4.35974393937059E-18
 [a.u.] -> [K]                                              3.15774647902944E+05
 [a.u.] -> [kJ/mol]                                         2.62549961709828E+03
 [a.u.] -> [kcal/mol]                                       6.27509468713739E+02
 [a.u.] -> [Pa]                                             2.94210107994716E+13
 [a.u.] -> [bar]                                            2.94210107994716E+08
 [a.u.] -> [atm]                                            2.90362800883016E+08
 [a.u.] -> [eV]                                             2.72113838565563E+01
 [a.u.] -> [Hz]                                             6.57968392072181E+15
 [a.u.] -> [1/cm] (wave numbers)                            2.19474631370540E+05
 [a.u./Bohr**2] -> [1/cm]                                   5.14048714338585E+03
 

 CELL| Volume [angstrom^3]:                                             1300.000
 CELL| Vector a [angstrom]:      10.000     0.000     0.000    |a| =      10.000
 CELL| Vector b [angstrom]:       0.000    10.000     0.000    |b| =      10.000
 CELL| Vector c [angstrom]:       0.000     0.000    13.000    |c| =      13.000
 CELL| Angle (b,c), alpha [degree]:                                       90.000
 CELL| Angle (a,c), beta  [degree]:                                       90.000
 CELL| Angle (a,b), gamma [degree]:                                       90.000

 CELL_REF| Volume [angstrom^3]:                                         1300.000
 CELL_REF| Vector a [angstrom    10.000     0.000     0.000    |a| =      10.000
 CELL_REF| Vector b [angstrom     0.000    10.000     0.000    |b| =      10.000
 CELL_REF| Vector c [angstrom     0.000     0.000    13.000    |c| =      13.000
 CELL_REF| Angle (b,c), alpha [degree]:                                   90.000
 CELL_REF| Angle (a,c), beta  [degree]:                                   90.000
 CELL_REF| Angle (a,b), gamma [degree]:                                   90.000

 CELL_TOP| Volume [angstrom^3]:                                         1300.000
 CELL_TOP| Vector a [angstrom    10.000     0.000     0.000    |a| =      10.000
 CELL_TOP| Vector b [angstrom     0.000    10.000     0.000    |b| =      10.000
 CELL_TOP| Vector c [angstrom     0.000     0.000    13.000    |c| =      13.000
 CELL_TOP| Angle (b,c), alpha [degree]:                                   90.000
 CELL_TOP| Angle (a,c), beta  [degree]:                                   90.000
 CELL_TOP| Angle (a,b), gamma [degree]:                                   90.000
 
 GENERATE|  Preliminary Number of Bonds generated:                             0
 GENERATE|  Achieved consistency in connectivity generation.
 GENERATE|  Number of Bonds generated:                                         0
 GENERATE|  Preliminary Number of Bends generated:                             0
 GENERATE|  Number of Bends generated:                                         0
 GENERATE|  Number of UB generated:                                            0
 GENERATE|  Preliminary Number of Torsions generated:                          0
 GENERATE|  Number of Torsions generated:                                      0
 GENERATE|  Number of Impropers generated:                                     0
 GENERATE|  Number of 1-4 interactions generated:                              0

 *******************************************************************************
 *******************************************************************************
 **                                                                           **
 **     #####                         ##              ##                      **
 **    ##   ##            ##          ##              ##                      **
 **   ##     ##                       ##            ######                    **
 **   ##     ##  ##   ##  ##   #####  ##  ##   ####   ##    #####    #####    **
 **   ##     ##  ##   ##  ##  ##      ## ##   ##      ##   ##   ##  ##   ##   **
 **   ##  ## ##  ##   ##  ##  ##      ####     ###    ##   ######   ######    **
 **    ##  ###   ##   ##  ##  ##      ## ##      ##   ##   ##       ##        **
 **     #######   #####   ##   #####  ##  ##  ####    ##    #####   ##        **
 **           ##                                                    ##        **
 **                                                                           **
 **                                                ... make the atoms dance   **
 **                                                                           **
 **            Copyright (C) by CP2K Developers Group (2000 - 2011)           **
 **                                                                           **
 *******************************************************************************

 DFT| Spin restricted Kohn-Sham (RKS) calculation                            RKS
 DFT| Multiplicity                                                             1
 DFT| Number of spin states                                                    1
 DFT| Charge                                                                   0
 DFT| Self-interaction correction (SIC)                                       NO
 DFT| Cutoffs: density                                              1.000000E-10
 DFT|          gradient                                             1.000000E-10
 DFT|          tau                                                  1.000000E-10
 DFT|          cutoff_smoothing_range                               0.000000E+00
 DFT| XC density smoothing                                                  NONE
 DFT| XC derivatives                                                          PW
 FUNCTIONAL| ROUTINE=NEW
 FUNCTIONAL| PBE:
 FUNCTIONAL| J.P.Perdew, K.Burke, M.Ernzerhof, Phys. Rev. Letter, vol. 77, n 18,
 FUNCTIONAL|  pp. 3865-3868, (1996){spin unpolarized}
 vdW POTENTIAL|                                                   Pair Potential
 vdW POTENTIAL|                   Potential Form: S. Grimme, JCC 27: 1787 (2006)
 vdW POTENTIAL|                   Cutoff Radius [Bohr]:                    20.00
 vdW POTENTIAL|                   Scaling Factor:                         0.7500
 vdW POTENTIAL|                   Exp Prefactor for Damping:                20.0
 vdW PARAMETER|  Atom=O    C6[J*nm^6*mol^-1]=  0.7000         r(vdW)[A]=  1.3420
 vdW PARAMETER|  Atom=C    C6[J*nm^6*mol^-1]=  1.7500         r(vdW)[A]=  1.4520

 QS| Method:                                                                 GPW
 QS| Density plane wave grid type                        NON-SPHERICAL FULLSPACE
 QS| Number of grid levels:                                                    5
 QS| Density cutoff [a.u.]:                                                175.0
 QS| Multi grid cutoff [a.u.]: 1) grid level                               175.0
 QS|                           2) grid level                                58.3
 QS|                           3) grid level                                19.4
 QS|                           4) grid level                                 6.5
 QS|                           5) grid level                                 2.2
 QS| Grid level progression factor:                                          3.0
 QS| Relative density cutoff [a.u.]:                                        15.0
 QS| Consistent realspace mapping and integration 
 QS| Interaction thresholds: eps_pgf_orb:                                1.0E-06
 QS|                         eps_filter_matrix:                          0.0E+00
 QS|                         eps_core_charge:                            1.0E-14
 QS|                         eps_rho_gspace:                             1.0E-12
 QS|                         eps_rho_rspace:                             1.0E-12
 QS|                         eps_gvg_rspace:                             1.0E-06
 QS|                         eps_ppl:                                    1.0E-02
 QS|                         eps_ppnl:                                   1.0E-08


 ATOMIC KIND INFORMATION

  1. Atomic kind: O                                     Number of atoms:       2

     Orbital basis set information for                                 QZV2P-GTH

       Number of orbital shell sets:                                           2
       Number of orbital shells:                                              10
       Number of primitive Cartesian functions:                                8
       Number of Cartesian basis functions:                                   28
       Number of spherical basis functions:                                   26

       Normalised Cartesian orbitals:

                        Set   Shell   Orbital            Exponent    Coefficient

                          1       1    2s               11.829868      -0.299448
                                                         4.932631      -0.313061
                                                         1.931300       0.178604
                                                         0.772400       0.305726
                                                         0.297633       0.124142
                                                         0.107006       0.008000

                          1       2    3s               11.829868       0.000000
                                                         4.932631       0.000000
                                                         1.931300       0.000000
                                                         0.772400       0.587208
                                                         0.297633       0.000000
                                                         0.107006       0.000000

                          1       3    4s               11.829868       0.000000
                                                         4.932631       0.000000
                                                         1.931300       0.000000
                                                         0.772400       0.000000
                                                         0.297633       0.287191
                                                         0.107006       0.000000

                          1       4    5s               11.829868       0.000000
                                                         4.932631       0.000000
                                                         1.931300       0.000000
                                                         0.772400       0.000000
                                                         0.297633       0.000000
                                                         0.107006       0.133342

                          1       5    3px              11.829868       1.219605
                                                         4.932631       1.393422
                                                         1.931300       0.888549
                                                         0.772400       0.378112
                                                         0.297633       0.103178
                                                         0.107006       0.011555
                          1       5    3py              11.829868       1.219605
                                                         4.932631       1.393422
                                                         1.931300       0.888549
                                                         0.772400       0.378112
                                                         0.297633       0.103178
                                                         0.107006       0.011555
                          1       5    3pz              11.829868       1.219605
                                                         4.932631       1.393422
                                                         1.931300       0.888549
                                                         0.772400       0.378112
                                                         0.297633       0.103178
                                                         0.107006       0.011555

                          1       6    4px              11.829868       0.000000
                                                         4.932631       0.000000
                                                         1.931300       0.000000
                                                         0.772400       1.032151
                                                         0.297633       0.000000
                                                         0.107006       0.000000
                          1       6    4py              11.829868       0.000000
                                                         4.932631       0.000000
                                                         1.931300       0.000000
                                                         0.772400       1.032151
                                                         0.297633       0.000000
                                                         0.107006       0.000000
                          1       6    4pz              11.829868       0.000000
                                                         4.932631       0.000000
                                                         1.931300       0.000000
                                                         0.772400       1.032151
                                                         0.297633       0.000000
                                                         0.107006       0.000000

                          1       7    5px              11.829868       0.000000
                                                         4.932631       0.000000
                                                         1.931300       0.000000
                                                         0.772400       0.000000
                                                         0.297633       0.313359
                                                         0.107006       0.000000
                          1       7    5py              11.829868       0.000000
                                                         4.932631       0.000000
                                                         1.931300       0.000000
                                                         0.772400       0.000000
                                                         0.297633       0.313359
                                                         0.107006       0.000000
                          1       7    5pz              11.829868       0.000000
                                                         4.932631       0.000000
                                                         1.931300       0.000000
                                                         0.772400       0.000000
                                                         0.297633       0.313359
                                                         0.107006       0.000000

                          1       8    6px              11.829868       0.000000
                                                         4.932631       0.000000
                                                         1.931300       0.000000
                                                         0.772400       0.000000
                                                         0.297633       0.000000
                                                         0.107006       0.087237
                          1       8    6py              11.829868       0.000000
                                                         4.932631       0.000000
                                                         1.931300       0.000000
                                                         0.772400       0.000000
                                                         0.297633       0.000000
                                                         0.107006       0.087237
                          1       8    6pz              11.829868       0.000000
                                                         4.932631       0.000000
                                                         1.931300       0.000000
                                                         0.772400       0.000000
                                                         0.297633       0.000000
                                                         0.107006       0.087237

                          2       1    3dx2              2.314000       7.145709
                                                         0.645000       0.000000
                          2       1    3dxy              2.314000      12.376731
                                                         0.645000       0.000000
                          2       1    3dxz              2.314000      12.376731
                                                         0.645000       0.000000
                          2       1    3dy2              2.314000       7.145709
                                                         0.645000       0.000000
                          2       1    3dyz              2.314000      12.376731
                                                         0.645000       0.000000
                          2       1    3dz2              2.314000       7.145709
                                                         0.645000       0.000000

                          2       2    4dx2              2.314000       0.000000
                                                         0.645000       0.764080
                          2       2    4dxy              2.314000       0.000000
                                                         0.645000       1.323426
                          2       2    4dxz              2.314000       0.000000
                                                         0.645000       1.323426
                          2       2    4dy2              2.314000       0.000000
                                                         0.645000       0.764080
                          2       2    4dyz              2.314000       0.000000
                                                         0.645000       1.323426
                          2       2    4dz2              2.314000       0.000000
                                                         0.645000       0.764080

     Potential information for                                        GTH-PBE-q6

       Description:                       Goedecker-Teter-Hutter pseudopotential
                                           Goedecker et al., PRB 54, 1703 (1996)
                                          Hartwigsen et al., PRB 58, 3641 (1998)
                                                      Krack, TCA 114, 145 (2005)

       Gaussian exponent of the core charge distribution:               8.360253
       Electronic configuration (s p d ...):                               2   4

       Parameters of the local part of the GTH pseudopotential:

                          rloc        C1          C2          C3          C4
                        0.244554  -16.667215    2.487311

       Parameters of the non-local part of the GTH pseudopotential:

                   l      r(l)      h(i,j,l)

                   0    0.220956   18.337458
                   1    0.211332

  2. Atomic kind: C                                     Number of atoms:       1

     Orbital basis set information for                                 QZV2P-GTH

       Number of orbital shell sets:                                           2
       Number of orbital shells:                                              10
       Number of primitive Cartesian functions:                                8
       Number of Cartesian basis functions:                                   28
       Number of spherical basis functions:                                   26

       Normalised Cartesian orbitals:

                        Set   Shell   Orbital            Exponent    Coefficient

                          1       1    2s                6.211790      -0.181428
                                                         2.606342      -0.189726
                                                         1.011026       0.098111
                                                         0.409977       0.189293
                                                         0.161541       0.080390
                                                         0.059735       0.005156

                          1       2    3s                6.211790       0.000000
                                                         2.606342       0.000000
                                                         1.011026       0.000000
                                                         0.409977       0.365157
                                                         0.161541       0.000000
                                                         0.059735       0.000000

                          1       3    4s                6.211790       0.000000
                                                         2.606342       0.000000
                                                         1.011026       0.000000
                                                         0.409977       0.000000
                                                         0.161541       0.181603
                                                         0.059735       0.000000

                          1       4    5s                6.211790       0.000000
                                                         2.606342       0.000000
                                                         1.011026       0.000000
                                                         0.409977       0.000000
                                                         0.161541       0.000000
                                                         0.059735       0.086116

                          1       5    3px               6.211790       0.455098
                                                         2.606342       0.567807
                                                         1.011026       0.369480
                                                         0.409977       0.170387
                                                         0.161541       0.050941
                                                         0.059735       0.005893
                          1       5    3py               6.211790       0.455098
                                                         2.606342       0.567807
                                                         1.011026       0.369480
                                                         0.409977       0.170387
                                                         0.161541       0.050941
                                                         0.059735       0.005893
                          1       5    3pz               6.211790       0.455098
                                                         2.606342       0.567807
                                                         1.011026       0.369480
                                                         0.409977       0.170387
                                                         0.161541       0.050941
                                                         0.059735       0.005893

                          1       6    4px               6.211790       0.000000
                                                         2.606342       0.000000
                                                         1.011026       0.000000
                                                         0.409977       0.467616
                                                         0.161541       0.000000
                                                         0.059735       0.000000
                          1       6    4py               6.211790       0.000000
                                                         2.606342       0.000000
                                                         1.011026       0.000000
                                                         0.409977       0.467616
                                                         0.161541       0.000000
                                                         0.059735       0.000000
                          1       6    4pz               6.211790       0.000000
                                                         2.606342       0.000000
                                                         1.011026       0.000000
                                                         0.409977       0.467616
                                                         0.161541       0.000000
                                                         0.059735       0.000000

                          1       7    5px               6.211790       0.000000
                                                         2.606342       0.000000
                                                         1.011026       0.000000
                                                         0.409977       0.000000
                                                         0.161541       0.145980
                                                         0.059735       0.000000
                          1       7    5py               6.211790       0.000000
                                                         2.606342       0.000000
                                                         1.011026       0.000000
                                                         0.409977       0.000000
                                                         0.161541       0.145980
                                                         0.059735       0.000000
                          1       7    5pz               6.211790       0.000000
                                                         2.606342       0.000000
                                                         1.011026       0.000000
                                                         0.409977       0.000000
                                                         0.161541       0.145980
                                                         0.059735       0.000000

                          1       8    6px               6.211790       0.000000
                                                         2.606342       0.000000
                                                         1.011026       0.000000
                                                         0.409977       0.000000
                                                         0.161541       0.000000
                                                         0.059735       0.042095
                          1       8    6py               6.211790       0.000000
                                                         2.606342       0.000000
                                                         1.011026       0.000000
                                                         0.409977       0.000000
                                                         0.161541       0.000000
                                                         0.059735       0.042095
                          1       8    6pz               6.211790       0.000000
                                                         2.606342       0.000000
                                                         1.011026       0.000000
                                                         0.409977       0.000000
                                                         0.161541       0.000000
                                                         0.059735       0.042095

                          2       1    3dx2              1.097000       1.935401
                                                         0.318000       0.000000
                          2       1    3dxy              1.097000       3.352214
                                                         0.318000       0.000000
                          2       1    3dxz              1.097000       3.352214
                                                         0.318000       0.000000
                          2       1    3dy2              1.097000       1.935401
                                                         0.318000       0.000000
                          2       1    3dyz              1.097000       3.352214
                                                         0.318000       0.000000
                          2       1    3dz2              1.097000       1.935401
                                                         0.318000       0.000000

                          2       2    4dx2              1.097000       0.000000
                                                         0.318000       0.221644
                          2       2    4dxy              1.097000       0.000000
                                                         0.318000       0.383899
                          2       2    4dxz              1.097000       0.000000
                                                         0.318000       0.383899
                          2       2    4dy2              1.097000       0.000000
                                                         0.318000       0.221644
                          2       2    4dyz              1.097000       0.000000
                                                         0.318000       0.383899
                          2       2    4dz2              1.097000       0.000000
                                                         0.318000       0.221644

     Potential information for                                        GTH-PBE-q4

       Description:                       Goedecker-Teter-Hutter pseudopotential
                                           Goedecker et al., PRB 54, 1703 (1996)
                                          Hartwigsen et al., PRB 58, 3641 (1998)
                                                      Krack, TCA 114, 145 (2005)

       Gaussian exponent of the core charge distribution:               4.364419
       Electronic configuration (s p d ...):                               2   2

       Parameters of the local part of the GTH pseudopotential:

                          rloc        C1          C2          C3          C4
                        0.338471   -8.803674    1.339211

       Parameters of the non-local part of the GTH pseudopotential:

                   l      r(l)      h(i,j,l)

                   0    0.302576    9.622487
                   1    0.291507


 MOLECULE KIND INFORMATION


 All atoms are their own molecule, skipping detailed information


 TOTAL NUMBERS AND MAXIMUM NUMBERS

  Total number of            - Atomic kinds:                                   2
                             - Atoms:                                          3
                             - Shell sets:                                     6
                             - Shells:                                        30
                             - Primitive Cartesian functions:                 24
                             - Cartesian basis functions:                     84
                             - Spherical basis functions:                     78

  Maximum angular momentum of- Orbital basis functions:                        2
                             - Local part of the GTH pseudopotential:          2
                             - Non-local part of the GTH pseudopotential:      0


 MODULE QUICKSTEP:  ATOMIC COORDINATES IN angstrom

  Atom  Kind  Element       X           Y           Z          Z(eff)       Mass

       1     1 O    8    0.000000    0.000000   -1.167609      6.00      15.9994
       2     1 O    8    0.000000    0.000000    1.167609      6.00      15.9994
       3     2 C    6    0.000000    0.000000    0.000000      4.00      12.0107




 SCF PARAMETERS         Density guess:                                   RESTART
                        --------------------------------------------------------
                        max_scf:                                              30
                        max_scf_history:                                       0
                        max_diis:                                              4
                        --------------------------------------------------------
                        eps_scf:                                        1.00E-06
                        eps_scf_history:                                0.00E+00
                        eps_diis:                                       1.00E-01
                        eps_eigval:                                     1.00E-05
                        --------------------------------------------------------
                        level_shift [a.u.]:                                 0.00
                        --------------------------------------------------------
                        Outer loop SCF in use 
                        No variables optimised in outer loop
                        eps_scf                                         1.00E-06
                        max_scf                                               20
                        No outer loop optimization
                        step_size                                       5.00E-01

 PW_GRID: Information for grid number                                          7
 PW_GRID: Cutoff [a.u.]                                                    350.0
 PW_GRID: spherical cutoff:                                                   NO
 PW_GRID:   Bounds   1            -80      79                Points:         160
 PW_GRID:   Bounds   2            -80      79                Points:         160
 PW_GRID:   Bounds   3           -108     107                Points:         216
 PW_GRID: Volume element (a.u.^3)  0.1587E-02     Volume (a.u.^3)      8772.8350
 PW_GRID: Grid span                                                    FULLSPACE

 PW_GRID: Information for grid number                                          8
 PW_GRID: Cutoff [a.u.]                                                    175.0
 PW_GRID: spherical cutoff:                                                   NO
 PW_GRID:   Bounds   1            -60      59                Points:         120
 PW_GRID:   Bounds   2            -60      59                Points:         120
 PW_GRID:   Bounds   3            -75      74                Points:         150
 PW_GRID: Volume element (a.u.^3)  0.4061E-02     Volume (a.u.^3)      8772.8350
 PW_GRID: Grid span                                                    FULLSPACE

 PW_GRID: Information for grid number                                          9
 PW_GRID: Cutoff [a.u.]                                                     58.3
 PW_GRID: spherical cutoff:                                                   NO
 PW_GRID:   Bounds   1            -36      35                Points:          72
 PW_GRID:   Bounds   2            -36      35                Points:          72
 PW_GRID:   Bounds   3            -45      44                Points:          90
 PW_GRID: Volume element (a.u.^3)  0.1880E-01     Volume (a.u.^3)      8772.8350
 PW_GRID: Grid span                                                    FULLSPACE

 PW_GRID: Information for grid number                                         10
 PW_GRID: Cutoff [a.u.]                                                     19.4
 PW_GRID: spherical cutoff:                                                   NO
 PW_GRID:   Bounds   1            -20      19                Points:          40
 PW_GRID:   Bounds   2            -20      19                Points:          40
 PW_GRID:   Bounds   3            -27      26                Points:          54
 PW_GRID: Volume element (a.u.^3)  0.1015         Volume (a.u.^3)      8772.8350
 PW_GRID: Grid span                                                    FULLSPACE

 PW_GRID: Information for grid number                                         11
 PW_GRID: Cutoff [a.u.]                                                      6.5
 PW_GRID: spherical cutoff:                                                   NO
 PW_GRID:   Bounds   1            -12      11                Points:          24
 PW_GRID:   Bounds   2            -12      11                Points:          24
 PW_GRID:   Bounds   3            -15      14                Points:          30
 PW_GRID: Volume element (a.u.^3)  0.5077         Volume (a.u.^3)      8772.8350
 PW_GRID: Grid span                                                    FULLSPACE

 PW_GRID: Information for grid number                                         12
 PW_GRID: Cutoff [a.u.]                                                      2.2
 PW_GRID: spherical cutoff:                                                   NO
 PW_GRID:   Bounds   1             -7       7                Points:          15
 PW_GRID:   Bounds   2             -7       7                Points:          15
 PW_GRID:   Bounds   3             -9       8                Points:          18
 PW_GRID: Volume element (a.u.^3)   2.166         Volume (a.u.^3)      8772.8350
 PW_GRID: Grid span                                                    FULLSPACE

 RS_GRID: Information for grid number                                          8
 RS_GRID:   Bounds   1            -60      59                Points:         120
 RS_GRID:   Bounds   2            -60      59                Points:         120
 RS_GRID:   Bounds   3            -75      74                Points:         150

 RS_GRID: Information for grid number                                          9
 RS_GRID:   Bounds   1            -36      35                Points:          72
 RS_GRID:   Bounds   2            -36      35                Points:          72
 RS_GRID:   Bounds   3            -45      44                Points:          90

 RS_GRID: Information for grid number                                         10
 RS_GRID:   Bounds   1            -20      19                Points:          40
 RS_GRID:   Bounds   2            -20      19                Points:          40
 RS_GRID:   Bounds   3            -27      26                Points:          54

 RS_GRID: Information for grid number                                         11
 RS_GRID:   Bounds   1            -12      11                Points:          24
 RS_GRID:   Bounds   2            -12      11                Points:          24
 RS_GRID:   Bounds   3            -15      14                Points:          30

 RS_GRID: Information for grid number                                         12
 RS_GRID:   Bounds   1             -7       7                Points:          15
 RS_GRID:   Bounds   2             -7       7                Points:          15
 RS_GRID:   Bounds   3             -9       8                Points:          18

 DISTRIBUTION OF THE PARTICLES (ROWS)
              Process row      Number of particles         Number of matrix rows
                        0                        3                            -1
                      Sum                        3                            -1

 DISTRIBUTION OF THE PARTICLES (COLUMNS)
              Process col      Number of particles      Number of matrix columns
                        0                        3                            -1
                      Sum                        3                            -1

 DISTRIBUTION OF THE NEIGHBOR LISTS
              Total number of particle pairs:                                 39
              Total number of matrix elements:                             26364
              Average number of particle pairs:                               39
              Maximum number of particle pairs:                               39
              Average number of matrix element:                            26364
              Maximum number of matrix elements:                           26364


 DISTRIBUTION OF THE OVERLAP MATRIX
              Number  of non-zero blocks:                                      6
              Percentage non-zero blocks:                                 100.00
              Average number of blocks per CPU:                                6
              Maximum number of blocks per CPU:                                6
              Average number of matrix elements per CPU:                    4056
              Maximum number of matrix elements per CPU:                    4056

 Number of electrons:                                                         16
 Number of occupied orbitals:                                                  8
 Number of molecular orbitals:                                                 8

 Number of orbital functions:                                                 78
 Number of independent orbital functions:                                     78

 Extrapolation method: initial_guess

 *** 10:26:35 WARNING in qs_initial_guess:calculate_first_density_matrix    ***
 *** err=-300  User requested to restart the wavefunction from the file     ***
 *** named: temp-r-1-RESTART.wfn. This file does not exist. Please check    ***
 *** the existence of the file or change properly the value of the keyword  ***
 *** WFN_RESTART_FILE_NAME. Calculation continues using ATOMIC GUESS.       ***
 *** /usr/local/u/jmlarkin/CP2K/cp2k/makefiles/../src/qs_initial_guess.F    ***
 *** line    231                                                            ***

 Atomic guess: The first density matrix is obtained in terms of atomic orbitals
               and electronic configurations assigned to each atomic kind

 Guess for atomic kind: O

 Electronic structure
    Total number of core electrons                                          2.00
    Total number of valence electrons                                       6.00
    Total number of electrons                                               8.00
    Multiplicity                                                   not specified
    S   [  2.00] 2.00
    P      4.00
 

 *******************************************************************************
                  Iteration          Convergence                     Energy [au]
 *******************************************************************************
                          1         2.18546                     -14.421592257754
                          2         2.69278                     -13.555084223277
                          3        0.447857                     -15.582518344613
                          4        0.533362E-01                 -15.656339190379
                          5        0.343584E-02                 -15.657205503018
                          6        0.157467E-03                 -15.657209313096
                          7        0.668939E-06                 -15.657209321838

 Energy components [Hartree]           Total Energy ::          -15.657209321838
                                        Band Energy ::           -3.002498769363
                                     Kinetic Energy ::           11.774068762364
                                   Potential Energy ::          -27.431278084202
                                      Virial (-V/T) ::            2.329804474379
                                        Core Energy ::          -26.139244223055
                                          XC Energy ::           -3.153870619768
                                     Coulomb Energy ::           13.635905520985
                       Total Pseudopotential Energy ::          -37.948527599483
                       Local Pseudopotential Energy ::          -39.248895363653
                    Nonlocal Pseudopotential Energy ::            1.300367764171
                                        Confinement ::            0.352146140634

 Orbital energies  State     L     Occupation   Energy[a.u.]          Energy[eV]

                       1     0          2.000      -0.865035          -23.538787
                       2     0          0.000       0.148161            4.031658
                       3     0          0.000       1.268684           34.522651
                       4     0          0.000      15.043188          409.345953
 
                       1     1          4.000      -0.318107           -8.656143
                       2     1          0.000       0.229143            6.235300
                       3     1          0.000       1.076359           29.289206
                       4     1          0.000       4.260328          115.929412
 

 Guess for atomic kind: C

 Electronic structure
    Total number of core electrons                                          2.00
    Total number of valence electrons                                       4.00
    Total number of electrons                                               6.00
    Multiplicity                                                   not specified
    S   [  2.00] 2.00
    P      2.00
 

 *******************************************************************************
                  Iteration          Convergence                     Energy [au]
 *******************************************************************************
                          1        0.298189                      -5.146106674700
                          2        0.233825                      -5.202427473298
                          3        0.178756E-01                  -5.283543978370
                          4        0.570045E-03                  -5.284038237521
                          5        0.299436E-04                  -5.284038356028
                          6        0.163542E-06                  -5.284038357465

 Energy components [Hartree]           Total Energy ::           -5.284038357465
                                        Band Energy ::           -1.317146178102
                                     Kinetic Energy ::            3.390422048629
                                   Potential Energy ::           -8.674460406095
                                      Virial (-V/T) ::            2.558519347053
                                        Core Energy ::           -8.295784343766
                                          XC Energy ::           -1.377306946079
                                     Coulomb Energy ::            4.389052932380
                       Total Pseudopotential Energy ::          -11.720389813560
                       Local Pseudopotential Energy ::          -12.366572543168
                    Nonlocal Pseudopotential Energy ::            0.646182729609
                                        Confinement ::            0.341834211642

 Orbital energies  State     L     Occupation   Energy[a.u.]          Energy[eV]

                       1     0          2.000      -0.484432          -13.182076
                       2     0          0.000       0.102012            2.775900
                       3     0          0.000       0.691171           18.807710
                       4     0          0.000       8.065504          219.473523
 
                       1     1          2.000      -0.174141           -4.738609
                       2     1          0.000       0.160398            4.364645
                       3     1          0.000       0.605105           16.465744
                       4     1          0.000       2.314792           62.988684
 
 Re-scaling the density matrix to get the right number of electrons
                  # Electrons              Trace(P)               Scaling factor
                           16                16.000                        1.000


 SCF WAVEFUNCTION OPTIMIZATION

  ----------------------------------- OT ---------------------------------------

  Allowing for rotations:  F
  Optimizing orbital energies:  F
  Minimizer      : DIIS                : direct inversion
                                         in the iterative subspace
                            using      : -   7 DIIS vectors
                                         - safer DIIS on
  Preconditioner : FULL_ALL            : diagonalization, state selective
  Precond_solver : DEFAULT
  stepsize       :    0.15000000
  energy_gap     :    0.00100000

  eps_taylor     :   0.10000E-15
  max_taylor     :             4

  mixed_precision    : F

  ----------------------------------- OT ---------------------------------------

  Step     Update method      Time    Convergence         Total energy    Change
  ------------------------------------------------------------------------------

  Electronic density on regular grids:        -16.0000000130       -0.0000000130
  Core density on regular grids:               16.0000000000        0.0000000000
  Total charge density on r-space grids:       -0.0000000130
  Total charge density g-space grids:          -0.0000000130

     1 OT DIIS     0.15E+00    5.8     0.16159313       -36.1556970370 -3.62E+01

  Electronic density on regular grids:        -16.0000000122       -0.0000000122
  Core density on regular grids:               16.0000000000        0.0000000000
  Total charge density on r-space grids:       -0.0000000122
  Total charge density g-space grids:          -0.0000000122

     2 OT DIIS     0.15E+00    4.4     0.43161107       -35.4367621467  7.19E-01

  Electronic density on regular grids:        -16.0000000169       -0.0000000169
  Core density on regular grids:               16.0000000000        0.0000000000
  Total charge density on r-space grids:       -0.0000000169
  Total charge density g-space grids:          -0.0000000169

     3 OT DIIS     0.15E+00    4.2     0.12562814       -36.9998806036 -1.56E+00

  Electronic density on regular grids:        -16.0000000117       -0.0000000117
  Core density on regular grids:               16.0000000000        0.0000000000
  Total charge density on r-space grids:       -0.0000000117
  Total charge density g-space grids:          -0.0000000117

     4 OT DIIS     0.15E+00    4.1     0.08037266       -37.3977359086 -3.98E-01

  Electronic density on regular grids:        -16.0000000122       -0.0000000122
  Core density on regular grids:               16.0000000000        0.0000000000
  Total charge density on r-space grids:       -0.0000000122
  Total charge density g-space grids:          -0.0000000122

     5 OT DIIS     0.15E+00    4.1     0.05423857       -37.6039718729 -2.06E-01

  Electronic density on regular grids:        -16.0000000104       -0.0000000104
  Core density on regular grids:               16.0000000000        0.0000000000
  Total charge density on r-space grids:       -0.0000000104
  Total charge density g-space grids:          -0.0000000104

     6 OT DIIS     0.15E+00    4.0     0.06269101       -37.6888754318 -8.49E-02

  Electronic density on regular grids:        -16.0000000107       -0.0000000107
  Core density on regular grids:               16.0000000000        0.0000000000
  Total charge density on r-space grids:       -0.0000000107
  Total charge density g-space grids:          -0.0000000107

     7 OT DIIS     0.15E+00    4.0     0.05718183       -37.6885603068  3.15E-04

  Electronic density on regular grids:        -16.0000000092       -0.0000000092
  Core density on regular grids:               16.0000000000        0.0000000000
  Total charge density on r-space grids:       -0.0000000092
  Total charge density g-space grids:          -0.0000000092

     8 OT DIIS     0.15E+00    4.0     0.01367358       -37.7580519168 -6.95E-02

  Electronic density on regular grids:        -16.0000000095       -0.0000000095
  Core density on regular grids:               16.0000000000        0.0000000000
  Total charge density on r-space grids:       -0.0000000096
  Total charge density g-space grids:          -0.0000000096

     9 OT DIIS     0.15E+00    3.9     0.00975197       -37.7638768174 -5.82E-03

  Electronic density on regular grids:        -16.0000000095       -0.0000000095
  Core density on regular grids:               16.0000000000        0.0000000000
  Total charge density on r-space grids:       -0.0000000095
  Total charge density g-space grids:          -0.0000000095

    10 OT DIIS     0.15E+00    3.9     0.00690160       -37.7658118889 -1.94E-03

  Electronic density on regular grids:        -16.0000000097       -0.0000000097
  Core density on regular grids:               16.0000000000        0.0000000000
  Total charge density on r-space grids:       -0.0000000097
  Total charge density g-space grids:          -0.0000000097

    11 OT DIIS     0.15E+00    3.9     0.00360456       -37.7665258247 -7.14E-04

  Electronic density on regular grids:        -16.0000000097       -0.0000000097
  Core density on regular grids:               16.0000000000        0.0000000000
  Total charge density on r-space grids:       -0.0000000097
  Total charge density g-space grids:          -0.0000000097

    12 OT DIIS     0.15E+00    3.9     0.00162172       -37.7669748059 -4.49E-04

  Electronic density on regular grids:        -16.0000000097       -0.0000000097
  Core density on regular grids:               16.0000000000        0.0000000000
  Total charge density on r-space grids:       -0.0000000097
  Total charge density g-space grids:          -0.0000000097

    13 OT DIIS     0.15E+00    3.9     0.00094658       -37.7671325888 -1.58E-04

  Electronic density on regular grids:        -16.0000000098       -0.0000000098
  Core density on regular grids:               16.0000000000        0.0000000000
  Total charge density on r-space grids:       -0.0000000098
  Total charge density g-space grids:          -0.0000000098

    14 OT DIIS     0.15E+00    3.9     0.00047776       -37.7671742585 -4.17E-05

  Electronic density on regular grids:        -16.0000000098       -0.0000000098
  Core density on regular grids:               16.0000000000        0.0000000000
  Total charge density on r-space grids:       -0.0000000098
  Total charge density g-space grids:          -0.0000000098

    15 OT DIIS     0.15E+00    3.9     0.00044887       -37.7671853416 -1.11E-05

  Electronic density on regular grids:        -16.0000000098       -0.0000000098
  Core density on regular grids:               16.0000000000        0.0000000000
  Total charge density on r-space grids:       -0.0000000098
  Total charge density g-space grids:          -0.0000000098

    16 OT DIIS     0.15E+00    3.9     0.00026525       -37.7671903550 -5.01E-06

  Electronic density on regular grids:        -16.0000000098       -0.0000000098
  Core density on regular grids:               16.0000000000        0.0000000000
  Total charge density on r-space grids:       -0.0000000098
  Total charge density g-space grids:          -0.0000000098

    17 OT DIIS     0.15E+00    3.9     0.00013166       -37.7671923529 -2.00E-06

  Electronic density on regular grids:        -16.0000000098       -0.0000000098
  Core density on regular grids:               16.0000000000        0.0000000000
  Total charge density on r-space grids:       -0.0000000098
  Total charge density g-space grids:          -0.0000000098

    18 OT DIIS     0.15E+00    3.9     0.00014492       -37.7671931531 -8.00E-07

  Electronic density on regular grids:        -16.0000000098       -0.0000000098
  Core density on regular grids:               16.0000000000        0.0000000000
  Total charge density on r-space grids:       -0.0000000098
  Total charge density g-space grids:          -0.0000000098

    19 OT DIIS     0.15E+00    3.9     0.00010280       -37.7671933605 -2.07E-07

  Electronic density on regular grids:        -16.0000000098       -0.0000000098
  Core density on regular grids:               16.0000000000        0.0000000000
  Total charge density on r-space grids:       -0.0000000098
  Total charge density g-space grids:          -0.0000000098

    20 OT DIIS     0.15E+00    3.8     0.00004957       -37.7671935297 -1.69E-07

  Electronic density on regular grids:        -16.0000000098       -0.0000000098
  Core density on regular grids:               16.0000000000        0.0000000000
  Total charge density on r-space grids:       -0.0000000098
  Total charge density g-space grids:          -0.0000000098

    21 OT DIIS     0.15E+00    3.9     0.00002597       -37.7671936085 -7.88E-08

  Electronic density on regular grids:        -16.0000000098       -0.0000000098
  Core density on regular grids:               16.0000000000        0.0000000000
  Total charge density on r-space grids:       -0.0000000098
  Total charge density g-space grids:          -0.0000000098

    22 OT DIIS     0.15E+00    3.9     0.00001894       -37.7671936364 -2.79E-08

  Electronic density on regular grids:        -16.0000000098       -0.0000000098
  Core density on regular grids:               16.0000000000        0.0000000000
  Total charge density on r-space grids:       -0.0000000098
  Total charge density g-space grids:          -0.0000000098

    23 OT DIIS     0.15E+00    3.8     0.00001470       -37.7671936516 -1.51E-08

  Electronic density on regular grids:        -16.0000000098       -0.0000000098
  Core density on regular grids:               16.0000000000        0.0000000000
  Total charge density on r-space grids:       -0.0000000098
  Total charge density g-space grids:          -0.0000000098

    24 OT DIIS     0.15E+00    3.8     0.00001192       -37.7671936576 -5.99E-09

  Electronic density on regular grids:        -16.0000000098       -0.0000000098
  Core density on regular grids:               16.0000000000        0.0000000000
  Total charge density on r-space grids:       -0.0000000098
  Total charge density g-space grids:          -0.0000000098

    25 OT DIIS     0.15E+00    3.8     0.00000629       -37.7671936609 -3.32E-09

  Electronic density on regular grids:        -16.0000000098       -0.0000000098
  Core density on regular grids:               16.0000000000        0.0000000000
  Total charge density on r-space grids:       -0.0000000098
  Total charge density g-space grids:          -0.0000000098

    26 OT DIIS     0.15E+00    3.9     0.00000574       -37.7671936626 -1.77E-09

  Electronic density on regular grids:        -16.0000000098       -0.0000000098
  Core density on regular grids:               16.0000000000        0.0000000000
  Total charge density on r-space grids:       -0.0000000098
  Total charge density g-space grids:          -0.0000000098

    27 OT DIIS     0.15E+00    3.9     0.00000630       -37.7671936632 -5.64E-10

  Electronic density on regular grids:        -16.0000000098       -0.0000000098
  Core density on regular grids:               16.0000000000        0.0000000000
  Total charge density on r-space grids:       -0.0000000098
  Total charge density g-space grids:          -0.0000000098

    28 OT DIIS     0.15E+00    3.8     0.00000360       -37.7671936639 -6.49E-10

  Electronic density on regular grids:        -16.0000000098       -0.0000000098
  Core density on regular grids:               16.0000000000        0.0000000000
  Total charge density on r-space grids:       -0.0000000098
  Total charge density g-space grids:          -0.0000000098

    29 OT DIIS     0.15E+00    3.9     0.00000188       -37.7671936642 -3.40E-10

  Electronic density on regular grids:        -16.0000000098       -0.0000000098
  Core density on regular grids:               16.0000000000        0.0000000000
  Total charge density on r-space grids:       -0.0000000098
  Total charge density g-space grids:          -0.0000000098

    30 OT DIIS     0.15E+00    3.9     0.00000135       -37.7671936644 -1.61E-10

  *** SCF run NOT converged ***


  Electronic density on regular grids:        -16.0000000098       -0.0000000098
  Core density on regular grids:               16.0000000000        0.0000000000
  Total charge density on r-space grids:       -0.0000000098
  Total charge density g-space grids:          -0.0000000098

  Overlap energy of the core charge distribution:               0.00000274954716
  Self energy of the core charge distribution:                -96.38742208476296
  Core Hamiltonian energy:                                     27.75460911915342
  Hartree energy:                                              39.53359540541925
  Exchange-correlation energy:                                 -8.66788428749922
  Dispersion energy:                                           -0.00009456621754

  Total energy:                                               -37.76719366435989

  outer SCF iter =    1 RMS gradient =   0.13E-05 energy =        -37.7671936644

  ----------------------------------- OT ---------------------------------------

  Allowing for rotations:  F
  Optimizing orbital energies:  F
  Minimizer      : DIIS                : direct inversion
                                         in the iterative subspace
                            using      : -   7 DIIS vectors
                                         - safer DIIS on
  Preconditioner : FULL_ALL            : diagonalization, state selective
  Precond_solver : DEFAULT
  stepsize       :    0.15000000
  energy_gap     :    0.00100000

  eps_taylor     :   0.10000E-15
  max_taylor     :             4

  mixed_precision    : F

  ----------------------------------- OT ---------------------------------------

  Step     Update method      Time    Convergence         Total energy    Change
  ------------------------------------------------------------------------------

  Electronic density on regular grids:        -16.0000000098       -0.0000000098
  Core density on regular grids:               16.0000000000        0.0000000000
  Total charge density on r-space grids:       -0.0000000098
  Total charge density g-space grids:          -0.0000000098

     1 OT DIIS     0.15E+00    7.7     0.00000103       -37.7671936644 -8.60E-11

  Electronic density on regular grids:        -16.0000000098       -0.0000000098
  Core density on regular grids:               16.0000000000        0.0000000000
  Total charge density on r-space grids:       -0.0000000098
  Total charge density g-space grids:          -0.0000000098

     2 OT DIIS     0.15E+00    3.6     0.00000046       -37.7671936645 -6.67E-11

  *** SCF run converged in     2 steps ***


  Electronic density on regular grids:        -16.0000000098       -0.0000000098
  Core density on regular grids:               16.0000000000        0.0000000000
  Total charge density on r-space grids:       -0.0000000098
  Total charge density g-space grids:          -0.0000000098

  Overlap energy of the core charge distribution:               0.00000274954716
  Self energy of the core charge distribution:                -96.38742208476296
  Core Hamiltonian energy:                                     27.75460698452067
  Hartree energy:                                              39.53359724967260
  Exchange-correlation energy:                                 -8.66788399727252
  Dispersion energy:                                           -0.00009456621754

  Total energy:                                               -37.76719366451259

  outer SCF iter =    2 RMS gradient =   0.46E-06 energy =        -37.7671936645
  outer SCF loop converged in   2 iterations or   32 steps



 MULLIKEN POPULATION ANALYSIS

 # Atom  Element  Kind  Atomic population                Net charge
      1     O        1           6.304129                 -0.304129
      2     O        1           6.304129                 -0.304129
      3     C        2           3.391743                  0.608257
 # Total charge                 16.000000                  0.000000


 MOMENTS
  The electric moments are written to file:
  /usr/local/u/jmlarkin/CP2K/CdSe/vib/./MOMENTS-moments.dat


 LOCALIZE| The spread relative to a set of orbitals is computed
 LOCALIZE| Orbitals to be localized: All the occupied
 LOCALIZE| If fractional occupation, fully occupied MOs are those within occupation tolerance of       0.00000100
 LOCALIZE| Spread defined by the Berry phase operator 
 LOCALIZE| The optimal unitary transformation is generated by the Crazy angle algorithm
 LOCALIZE| maximum angle:       0.05000000
 LOCALIZE| scaling:       1.00000000
 LOCALIZE| use diag:F
  
  Eigenvalues of the occupied subspace spin            1
 ---------------------------------------------
      -1.07539641     -1.03872634     -0.50795708     -0.46709927
      -0.46709771     -0.46672090     -0.33407647     -0.33407321
 Fermi Energy [eV] :   -9.090594

 LOCALIZATION| Computing localization properties for OCCUPIED ORBITALS. Spin:  1
          Spread Functional     sum_in -w_i ln(|z_in|^2)    sum_in w_i(1-|z_in|^2)
    Initial Spread (Berry) :                  48.8799527438       42.3573644221
 CRAZY|   Iter            value        gradient   Max. eval       limit
 CRAZY|      1 664.502290529071      0.4008E+02  0.2316E+00  0.5000E-01
 CRAZY|      2 659.035330481526      0.4049E+02  0.1749E+00  0.5000E-01
 CRAZY|      3 653.044812957036      0.3772E+02  0.1535E+00  0.5000E-01
 CRAZY|      4 646.360135517509      0.3192E+02  0.1527E+00  0.5000E-01
 CRAZY|      5 639.726406245342      0.3696E+02  0.1526E+00  0.5000E-01
 CRAZY|      6 633.808559078488      0.4009E+02  0.1519E+00  0.5000E-01
 CRAZY|      7 629.111788576521      0.4044E+02  0.1517E+00  0.5000E-01
 CRAZY|      8 626.034242509898      0.3891E+02  0.1516E+00  0.5000E-01
 CRAZY|      9 623.691402497377      0.3857E+02  0.1523E+00  0.5000E-01
 CRAZY|     10 621.660169994785      0.3648E+02  0.9586E-01  0.5000E-01
 CRAZY|     11 619.787066896952      0.3335E+02  0.8619E-01  0.5000E-01
 CRAZY|     12 618.101640029876      0.2924E+02  0.9446E-01  0.5000E-01
 CRAZY|     13 616.657501967796      0.2412E+02  0.8874E-01  0.5000E-01
 CRAZY|     14 615.485929340447      0.1833E+02  0.9123E-01  0.5000E-01
 CRAZY|     15 614.620115461819      0.1200E+02  0.8967E-01  0.5000E-01
 CRAZY|     16 614.076460863747      0.5420E+01  0.9046E-01  0.5000E-01
 CRAZY|     17 613.874605476288      0.2457E+01  0.6980E-01  0.5000E-01
 CRAZY|     18 613.822767769831      0.1352E+01  0.3647E-01  0.5000E-01
 CRAZY|     19 613.809411310569      0.6087E+00  0.1807E-01  0.5000E-01
 CRAZY|     20 613.805979546758      0.3488E+00  0.9623E-02  0.5000E-01
 CRAZY|     21 613.805093814340      0.1511E+00  0.4512E-02  0.5000E-01
 CRAZY|     22 613.804864103012      0.9205E-01  0.2580E-02  0.5000E-01
 CRAZY|     23 613.804803654618      0.3671E-01  0.1081E-02  0.5000E-01
 CRAZY|     24 613.804787264644      0.2509E-01  0.7213E-03  0.5000E-01
 CRAZY|     25 613.804782515049      0.1133E-01  0.4955E-03  0.5000E-01
 CRAZY|     26 613.804780953357      0.9775E-02  0.3908E-03  0.5000E-01
 CRAZY|     27 613.804780327630      0.6526E-02  0.3072E-03  0.5000E-01
 CRAZY|     28 613.804780013888      0.6369E-02  0.2416E-03  0.5000E-01
 CRAZY|     29 613.804779823554      0.3970E-02  0.1903E-03  0.5000E-01
 CRAZY|     30 613.804779691500      0.4237E-02  0.1493E-03  0.5000E-01
 CRAZY|     31 613.804779590632      0.2766E-02  0.1179E-03  0.5000E-01
 CRAZY|     32 613.804779507758      0.2915E-02  0.9219E-04  0.5000E-01
 CRAZY|     33 613.804779435622      0.2013E-02  0.7302E-04  0.5000E-01
 CRAZY|     34 613.804779370009      0.2099E-02  0.5684E-04  0.5000E-01
 CRAZY|     35 613.804779308385      0.1544E-02  0.4579E-04  0.5000E-01
 CRAZY|     36 613.804779249213      0.1596E-02  0.4346E-04  0.5000E-01
 CRAZY|     37 613.804779191542      0.1252E-02  0.3790E-04  0.5000E-01
 CRAZY|     38 613.804779134800      0.1287E-02  0.3630E-04  0.5000E-01
 CRAZY|     39 613.804779078626      0.1071E-02  0.3302E-04  0.5000E-01
 CRAZY|     40 613.804779022805      0.1096E-02  0.3189E-04  0.5000E-01
 CRAZY|     41 613.804778967200      0.9580E-03  0.3000E-04  0.5000E-01
 CRAZY|     42 613.804778911730      0.9788E-03  0.2917E-04  0.5000E-01
 CRAZY|     43 613.804778856342      0.8881E-03  0.2814E-04  0.5000E-01
 CRAZY|     44 613.804778801006      0.9064E-03  0.2749E-04  0.5000E-01
 CRAZY|     45 613.804778745701      0.8447E-03  0.2698E-04  0.5000E-01
 CRAZY|     46 613.804778690417      0.8618E-03  0.2650E-04  0.5000E-01
 CRAZY|     47 613.804778635145      0.8178E-03  0.2650E-04  0.5000E-01
 CRAZY|     48 613.804778579880      0.8342E-03  0.2611E-04  0.5000E-01
 CRAZY|     49 613.804778524623      0.8012E-03  0.2625E-04  0.5000E-01
 CRAZY|     50 613.804778469370      0.8172E-03  0.2608E-04  0.5000E-01
 CRAZY|     51 613.804778414115      0.7908E-03  0.2609E-04  0.5000E-01
 CRAZY|     52 613.804778358864      0.8066E-03  0.2606E-04  0.5000E-01
 CRAZY|     53 613.804778303614      0.7843E-03  0.2602E-04  0.5000E-01
 CRAZY|     54 613.804778248369      0.8001E-03  0.2604E-04  0.5000E-01
 CRAZY|     55 613.804778193124      0.7816E-03  0.2602E-04  0.5000E-01
 CRAZY|     56 613.804778137878      0.7959E-03  0.2603E-04  0.5000E-01
 CRAZY|     57 613.804778082634      0.7845E-03  0.2601E-04  0.5000E-01
 CRAZY|     58 613.804778027391      0.7933E-03  0.2602E-04  0.5000E-01
 CRAZY|     59 613.804777972148      0.7863E-03  0.2601E-04  0.5000E-01
 CRAZY|     60 613.804777916908      0.7917E-03  0.2601E-04  0.5000E-01
 CRAZY|     61 613.804777861668      0.7873E-03  0.2601E-04  0.5000E-01
 CRAZY|     62 613.804777806432      0.7906E-03  0.2601E-04  0.5000E-01
 CRAZY|     63 613.804777751193      0.7878E-03  0.2600E-04  0.5000E-01
 CRAZY|     64 613.804777695955      0.7898E-03  0.2600E-04  0.5000E-01
 CRAZY|     65 613.804777640723      0.7881E-03  0.2600E-04  0.5000E-01
 CRAZY|     66 613.804777585489      0.7893E-03  0.2599E-04  0.5000E-01
 CRAZY|     67 613.804777530251      0.7882E-03  0.2599E-04  0.5000E-01
 CRAZY|     68 613.804777475018      0.7889E-03  0.2599E-04  0.5000E-01
 CRAZY|     69 613.804777419784      0.7882E-03  0.2598E-04  0.5000E-01
 CRAZY|     70 613.804777364552      0.7886E-03  0.2598E-04  0.5000E-01
 CRAZY|     71 613.804777309320      0.7881E-03  0.2598E-04  0.5000E-01
 CRAZY|     72 613.804777254090      0.7884E-03  0.2598E-04  0.5000E-01
 CRAZY|     73 613.804777198860      0.7880E-03  0.2597E-04  0.5000E-01
 CRAZY|     74 613.804777143633      0.7881E-03  0.2597E-04  0.5000E-01
 CRAZY|     75 613.804777088405      0.7879E-03  0.2597E-04  0.5000E-01
 CRAZY|     76 613.804777033179      0.7879E-03  0.2596E-04  0.5000E-01
 CRAZY|     77 613.804776977952      0.7878E-03  0.2596E-04  0.5000E-01
 CRAZY|     78 613.804776922728      0.7878E-03  0.2596E-04  0.5000E-01
 CRAZY|     79 613.804776867504      0.7876E-03  0.2596E-04  0.5000E-01
 CRAZY|     80 613.804776812281      0.7876E-03  0.2595E-04  0.5000E-01
 CRAZY|     81 613.804776757060      0.7874E-03  0.2595E-04  0.5000E-01
 CRAZY|     82 613.804776701837      0.7874E-03  0.2595E-04  0.5000E-01
 CRAZY|     83 613.804776646617      0.7873E-03  0.2594E-04  0.5000E-01
 CRAZY|     84 613.804776591398      0.7872E-03  0.2594E-04  0.5000E-01
 CRAZY|     85 613.804776536181      0.7871E-03  0.2594E-04  0.5000E-01
 CRAZY|     86 613.804776480961      0.7870E-03  0.2594E-04  0.5000E-01
 CRAZY|     87 613.804776425744      0.7870E-03  0.2593E-04  0.5000E-01
 CRAZY|     88 613.804776370529      0.7869E-03  0.2593E-04  0.5000E-01
 CRAZY|     89 613.804776315313      0.7868E-03  0.2593E-04  0.5000E-01
 CRAZY|     90 613.804776260097      0.7867E-03  0.2592E-04  0.5000E-01
 CRAZY|     91 613.804776204882      0.7866E-03  0.2592E-04  0.5000E-01
 CRAZY|     92 613.804776149668      0.7865E-03  0.2592E-04  0.5000E-01
 CRAZY|     93 613.804776094457      0.7864E-03  0.2592E-04  0.5000E-01
 CRAZY|     94 613.804776039246      0.7864E-03  0.2591E-04  0.5000E-01
 CRAZY|     95 613.804775984036      0.7863E-03  0.2591E-04  0.5000E-01
 CRAZY|     96 613.804775928827      0.7862E-03  0.2591E-04  0.5000E-01
 CRAZY|     97 613.804775873616      0.7861E-03  0.2591E-04  0.5000E-01
 CRAZY|     98 613.804775818409      0.7860E-03  0.2590E-04  0.5000E-01
 CRAZY|     99 613.804775763203      0.7859E-03  0.2590E-04  0.5000E-01
 CRAZY|    100 613.804775708000      0.7858E-03  0.2590E-04  0.5000E-01
 CRAZY|    101 613.804775652796      0.7858E-03  0.2589E-04  0.5000E-01
 CRAZY|    102 613.804775597591      0.7857E-03  0.2589E-04  0.5000E-01
 CRAZY|    103 613.804775542390      0.7856E-03  0.2589E-04  0.5000E-01
 CRAZY|    104 613.804775487187      0.7855E-03  0.2589E-04  0.5000E-01
 CRAZY|    105 613.804775431987      0.7854E-03  0.2588E-04  0.5000E-01
 CRAZY|    106 613.804775376787      0.7853E-03  0.2588E-04  0.5000E-01
 CRAZY|    107 613.804775321587      0.7852E-03  0.2588E-04  0.5000E-01
 CRAZY|    108 613.804775266388      0.7852E-03  0.2587E-04  0.5000E-01
 CRAZY|    109 613.804775211191      0.7851E-03  0.2587E-04  0.5000E-01
 CRAZY|    110 613.804775155995      0.7850E-03  0.2587E-04  0.5000E-01
 CRAZY|    111 613.804775100799      0.7849E-03  0.2587E-04  0.5000E-01
 CRAZY|    112 613.804775045605      0.7848E-03  0.2586E-04  0.5000E-01
 CRAZY|    113 613.804774990410      0.7847E-03  0.2586E-04  0.5000E-01
 CRAZY|    114 613.804774935218      0.7847E-03  0.2586E-04  0.5000E-01
 CRAZY|    115 613.804774880026      0.7846E-03  0.2585E-04  0.5000E-01
 CRAZY|    116 613.804774824836      0.7845E-03  0.2585E-04  0.5000E-01
 CRAZY|    117 613.804774769644      0.7844E-03  0.2585E-04  0.5000E-01
 CRAZY|    118 613.804774714453      0.7843E-03  0.2585E-04  0.5000E-01
 CRAZY|    119 613.804774659264      0.7842E-03  0.2584E-04  0.5000E-01
 CRAZY|    120 613.804774604076      0.7841E-03  0.2584E-04  0.5000E-01
 CRAZY|    121 613.804774548886      0.7841E-03  0.2584E-04  0.5000E-01
 CRAZY|    122 613.804774493700      0.7840E-03  0.2583E-04  0.5000E-01
 CRAZY|    123 613.804774438514      0.7839E-03  0.2583E-04  0.5000E-01
 CRAZY|    124 613.804774383330      0.7838E-03  0.2583E-04  0.5000E-01
 CRAZY|    125 613.804774328147      0.7837E-03  0.2583E-04  0.5000E-01
 CRAZY|    126 613.804774272966      0.7836E-03  0.2582E-04  0.5000E-01
 CRAZY|    127 613.804774217782      0.7835E-03  0.2582E-04  0.5000E-01
 CRAZY|    128 613.804774162603      0.7835E-03  0.2582E-04  0.5000E-01
 CRAZY|    129 613.804774107422      0.7834E-03  0.2581E-04  0.5000E-01
 CRAZY|    130 613.804774052245      0.7833E-03  0.2581E-04  0.5000E-01
 CRAZY|    131 613.804773997065      0.7832E-03  0.2581E-04  0.5000E-01
 CRAZY|    132 613.804773941886      0.7831E-03  0.2581E-04  0.5000E-01
 CRAZY|    133 613.804773886710      0.7830E-03  0.2580E-04  0.5000E-01
 CRAZY|    134 613.804773831535      0.7829E-03  0.2580E-04  0.5000E-01
 CRAZY|    135 613.804773776360      0.7829E-03  0.2580E-04  0.5000E-01
 CRAZY|    136 613.804773721185      0.7828E-03  0.2579E-04  0.5000E-01
 CRAZY|    137 613.804773666012      0.7827E-03  0.2579E-04  0.5000E-01
 CRAZY|    138 613.804773610840      0.7826E-03  0.2579E-04  0.5000E-01
[...]
 CRAZY|   1857 613.802130193365      0.2037E-03  0.6708E-05  0.5000E-01
 CRAZY|   1858 613.802130191374      0.2037E-03  0.6708E-05  0.5000E-01
 CRAZY|   1859 613.802130189382      0.2037E-03  0.6708E-05  0.5000E-01
 CRAZY|   1860 613.802130187391      0.2037E-03  0.6708E-05  0.5000E-01
 CRAZY|   1861 613.802130185400      0.2037E-03  0.6708E-05  0.5000E-01
 CRAZY|   1862 613.802130183411      0.2037E-03  0.6709E-05  0.5000E-01
 CRAZY|   1863 613.802130181419      0.2037E-03  0.6709E-05  0.5000E-01
 CRAZY|   1864 613.802130179427      0.2037E-03  0.6709E-05  0.5000E-01
 CRAZY|   1865 613.802130177437      0.2037E-03  0.6709E-05  0.5000E-01
 CRAZY|   1866 613.802130175445      0.2037E-03  0.6709E-05  0.5000E-01
 CRAZY|   1867 613.802130173456      0.2037E-03  0.6709E-05  0.5000E-01
 CRAZY|   1868 613.802130171463      0.2037E-03  0.6709E-05  0.5000E-01
 CRAZY|   1869 613.802130169471      0.2037E-03  0.6709E-05  0.5000E-01
 CRAZY|   1870 613.802130167478      0.2037E-03  0.6710E-05  0.5000E-01
 CRAZY|   1871 613.802130165486      0.2037E-03  0.6710E-05  0.5000E-01
 CRAZY|   1872 613.802130163493      0.2037E-03  0.6710E-05  0.5000E-01
 CRAZY|   1873 613.802130161501      0.2037E-03  0.6710E-05  0.5000E-01
 CRAZY|   1874 613.802130159509      0.2038E-03  0.6710E-05  0.5000E-01
 CRAZY|   1875 613.802130157518      0.2038E-03  0.6710E-05  0.5000E-01
 CRAZY|   1876 613.802130155526      0.2038E-03  0.6710E-05  0.5000E-01
 CRAZY|   1877 613.802130153536      0.2038E-03  0.6711E-05  0.5000E-01
 CRAZY|   1878 613.802130151545      0.2038E-03  0.6711E-05  0.5000E-01
 CRAZY|   1879 613.802130149552      0.2038E-03  0.6711E-05  0.5000E-01
 CRAZY|   1880 613.802130147560      0.2038E-03  0.6711E-05  0.5000E-01
 CRAZY|   1881 613.802130145566      0.2038E-03  0.6711E-05  0.5000E-01
 CRAZY|   1882 613.802130143575      0.2038E-03  0.6711E-05  0.5000E-01
 CRAZY|   1883 613.802130141580      0.2038E-03  0.6711E-05  0.5000E-01
 CRAZY|   1884 613.802130139586      0.2038E-03  0.6712E-05  0.5000E-01
 CRAZY|   1885 613.802130137592      0.2038E-03  0.6712E-05  0.5000E-01
 CRAZY|   1886 613.802130135599      0.2038E-03  0.6712E-05  0.5000E-01
 CRAZY|   1887 613.802130133606      0.2038E-03  0.6712E-05  0.5000E-01
 CRAZY|   1888 613.802130131612      0.2038E-03  0.6712E-05  0.5000E-01
 CRAZY|   1889 613.802130129620      0.2038E-03  0.6712E-05  0.5000E-01
 CRAZY|   1890 613.802130127627      0.2038E-03  0.6712E-05  0.5000E-01
 CRAZY|   1891 613.802130125633      0.2038E-03  0.6713E-05  0.5000E-01
 CRAZY|   1892 613.802130123640      0.2038E-03  0.6713E-05  0.5000E-01
 CRAZY|   1893 613.802130121646      0.2038E-03  0.6713E-05  0.5000E-01
 CRAZY|   1894 613.802130119654      0.2038E-03  0.6713E-05  0.5000E-01
 CRAZY|   1895 613.802130117660      0.2038E-03  0.6713E-05  0.5000E-01
 CRAZY|   1896 613.802130115668      0.2038E-03  0.6713E-05  0.5000E-01
 CRAZY|   1897 613.802130113673      0.2039E-03  0.6713E-05  0.5000E-01
 CRAZY|   1898 613.802130111679      0.2039E-03  0.6713E-05  0.5000E-01
 CRAZY|   1899 613.802130109686      0.2039E-03  0.6714E-05  0.5000E-01
 CRAZY|   1900 613.802130107690      0.2039E-03  0.6714E-05  0.5000E-01
 CRAZY|   1901 613.802130105695      0.2039E-03  0.6714E-05  0.5000E-01
 CRAZY|   1902 613.802130103700      0.2039E-03  0.6714E-05  0.5000E-01
 CRAZY|   1903 613.802130101705      0.2039E-03  0.6714E-05  0.5000E-01
 CRAZY|   1904 613.802130099709      0.2039E-03  0.6714E-05  0.5000E-01
 CRAZY|   1905 613.802130097712      0.2039E-03  0.6714E-05  0.5000E-01
 CRAZY|   1906 613.802130095716      0.2039E-03  0.6715E-05  0.5000E-01
 CRAZY|   1907 613.802130093722      0.2039E-03  0.6715E-05  0.5000E-01
 CRAZY|   1908 613.802130091727      0.2039E-03  0.6715E-05  0.5000E-01
 CRAZY|   1909 613.802130089734      0.2039E-03  0.6715E-05  0.5000E-01
 CRAZY|   1910 613.802130087739      0.2039E-03  0.6715E-05  0.5000E-01
 CRAZY|   1911 613.802130085746      0.2039E-03  0.6715E-05  0.5000E-01
 CRAZY|   1912 613.802130083749      0.2039E-03  0.6715E-05  0.5000E-01
 CRAZY|   1913 613.802130081754      0.2039E-03  0.6716E-05  0.5000E-01
 CRAZY|   1914 613.802130079757      0.2039E-03  0.6716E-05  0.5000E-01
 CRAZY|   1915 613.802130077761      0.2039E-03  0.6716E-05  0.5000E-01
 CRAZY|   1916 613.802130075768      0.2039E-03  0.6716E-05  0.5000E-01
 CRAZY|   1917 613.802130073772      0.2039E-03  0.6716E-05  0.5000E-01
 CRAZY|   1918 613.802130071775      0.2039E-03  0.6716E-05  0.5000E-01
 CRAZY|   1919 613.802130069778      0.2039E-03  0.6716E-05  0.5000E-01
 CRAZY|   1920 613.802130067781      0.2039E-03  0.6717E-05  0.5000E-01
 CRAZY|   1921 613.802130065785      0.2040E-03  0.6717E-05  0.5000E-01
 CRAZY|   1922 613.802130063787      0.2040E-03  0.6717E-05  0.5000E-01
 CRAZY|   1923 613.802130061791      0.2040E-03  0.6717E-05  0.5000E-01
 CRAZY|   1924 613.802130059797      0.2040E-03  0.6717E-05  0.5000E-01
 CRAZY|   1925 613.802130057801      0.2040E-03  0.6717E-05  0.5000E-01
 CRAZY|   1926 613.802130055806      0.2040E-03  0.6717E-05  0.5000E-01
 CRAZY|   1927 613.802130053810      0.2040E-03  0.6717E-05  0.5000E-01
 CRAZY|   1928 613.802130051815      0.2040E-03  0.6718E-05  0.5000E-01
 CRAZY|   1929 613.802130049819      0.2040E-03  0.6718E-05  0.5000E-01
 CRAZY|   1930 613.802130047822      0.2040E-03  0.6718E-05  0.5000E-01
 CRAZY|   1931 613.802130045826      0.2040E-03  0.6718E-05  0.5000E-01
 CRAZY|   1932 613.802130043828      0.2040E-03  0.6718E-05  0.5000E-01
 CRAZY|   1933 613.802130041832      0.2040E-03  0.6718E-05  0.5000E-01
 CRAZY|   1934 613.802130039834      0.2040E-03  0.6718E-05  0.5000E-01
 CRAZY|   1935 613.802130037838      0.2040E-03  0.6719E-05  0.5000E-01
 CRAZY|   1936 613.802130035840      0.2040E-03  0.6719E-05  0.5000E-01
 CRAZY|   1937 613.802130033842      0.2040E-03  0.6719E-05  0.5000E-01
 CRAZY|   1938 613.802130031843      0.2040E-03  0.6719E-05  0.5000E-01
 CRAZY|   1939 613.802130029845      0.2040E-03  0.6719E-05  0.5000E-01
 CRAZY|   1940 613.802130027848      0.2040E-03  0.6719E-05  0.5000E-01
 CRAZY|   1941 613.802130025852      0.2040E-03  0.6719E-05  0.5000E-01
 CRAZY|   1942 613.802130023854      0.2040E-03  0.6720E-05  0.5000E-01
 CRAZY|   1943 613.802130021855      0.2040E-03  0.6720E-05  0.5000E-01
 CRAZY|   1944 613.802130019857      0.2041E-03  0.6720E-05  0.5000E-01
 CRAZY|   1945 613.802130017858      0.2041E-03  0.6720E-05  0.5000E-01
 CRAZY|   1946 613.802130015860      0.2041E-03  0.6720E-05  0.5000E-01
 CRAZY|   1947 613.802130013860      0.2041E-03  0.6720E-05  0.5000E-01
 CRAZY|   1948 613.802130011861      0.2041E-03  0.6720E-05  0.5000E-01
 CRAZY|   1949 613.802130009861      0.2041E-03  0.6720E-05  0.5000E-01
 CRAZY|   1950 613.802130007862      0.2041E-03  0.6721E-05  0.5000E-01
 CRAZY|   1951 613.802130005864      0.2041E-03  0.6721E-05  0.5000E-01
 CRAZY|   1952 613.802130003866      0.2041E-03  0.6721E-05  0.5000E-01
 CRAZY|   1953 613.802130001865      0.2041E-03  0.6721E-05  0.5000E-01
 CRAZY|   1954 613.802129999867      0.2041E-03  0.6721E-05  0.5000E-01
 CRAZY|   1955 613.802129997867      0.2041E-03  0.6721E-05  0.5000E-01
 CRAZY|   1956 613.802129995868      0.2041E-03  0.6721E-05  0.5000E-01
 CRAZY|   1957 613.802129993869      0.2041E-03  0.6722E-05  0.5000E-01
 CRAZY|   1958 613.802129991869      0.2041E-03  0.6722E-05  0.5000E-01
 CRAZY|   1959 613.802129989869      0.2041E-03  0.6722E-05  0.5000E-01
 CRAZY|   1960 613.802129987869      0.2041E-03  0.6722E-05  0.5000E-01
 CRAZY|   1961 613.802129985870      0.2041E-03  0.6722E-05  0.5000E-01
 CRAZY|   1962 613.802129983870      0.2041E-03  0.6722E-05  0.5000E-01
 CRAZY|   1963 613.802129981869      0.2041E-03  0.6722E-05  0.5000E-01
 CRAZY|   1964 613.802129979868      0.2041E-03  0.6723E-05  0.5000E-01
 CRAZY|   1965 613.802129977869      0.2041E-03  0.6723E-05  0.5000E-01
 CRAZY|   1966 613.802129975869      0.2041E-03  0.6723E-05  0.5000E-01
 CRAZY|   1967 613.802129973867      0.2041E-03  0.6723E-05  0.5000E-01
 CRAZY|   1968 613.802129971867      0.2042E-03  0.6723E-05  0.5000E-01
 CRAZY|   1969 613.802129969865      0.2042E-03  0.6723E-05  0.5000E-01
 CRAZY|   1970 613.802129967864      0.2042E-03  0.6723E-05  0.5000E-01
 CRAZY|   1971 613.802129965863      0.2042E-03  0.6723E-05  0.5000E-01
 CRAZY|   1972 613.802129963862      0.2042E-03  0.6724E-05  0.5000E-01
 CRAZY|   1973 613.802129961862      0.2042E-03  0.6724E-05  0.5000E-01
 CRAZY|   1974 613.802129959859      0.2042E-03  0.6724E-05  0.5000E-01
 CRAZY|   1975 613.802129957858      0.2042E-03  0.6724E-05  0.5000E-01
 CRAZY|   1976 613.802129955859      0.2042E-03  0.6724E-05  0.5000E-01
 CRAZY|   1977 613.802129953859      0.2042E-03  0.6724E-05  0.5000E-01
 CRAZY|   1978 613.802129951857      0.2042E-03  0.6724E-05  0.5000E-01
 CRAZY|   1979 613.802129949856      0.2042E-03  0.6725E-05  0.5000E-01
 CRAZY|   1980 613.802129947853      0.2042E-03  0.6725E-05  0.5000E-01
 CRAZY|   1981 613.802129945850      0.2042E-03  0.6725E-05  0.5000E-01
 CRAZY|   1982 613.802129943847      0.2042E-03  0.6725E-05  0.5000E-01
 CRAZY|   1983 613.802129941845      0.2042E-03  0.6725E-05  0.5000E-01
 CRAZY|   1984 613.802129939843      0.2042E-03  0.6725E-05  0.5000E-01
 CRAZY|   1985 613.802129937841      0.2042E-03  0.6725E-05  0.5000E-01
 CRAZY|   1986 613.802129935840      0.2042E-03  0.6726E-05  0.5000E-01
 CRAZY|   1987 613.802129933838      0.2042E-03  0.6726E-05  0.5000E-01
 CRAZY|   1988 613.802129931835      0.2042E-03  0.6726E-05  0.5000E-01
 CRAZY|   1989 613.802129929833      0.2042E-03  0.6726E-05  0.5000E-01
 CRAZY|   1990 613.802129927830      0.2042E-03  0.6726E-05  0.5000E-01
 CRAZY|   1991 613.802129925827      0.2042E-03  0.6726E-05  0.5000E-01
 CRAZY|   1992 613.802129923824      0.2043E-03  0.6726E-05  0.5000E-01
 CRAZY|   1993 613.802129921821      0.2043E-03  0.6726E-05  0.5000E-01
 CRAZY|   1994 613.802129919819      0.2043E-03  0.6727E-05  0.5000E-01
 CRAZY|   1995 613.802129917815      0.2043E-03  0.6727E-05  0.5000E-01
 CRAZY|   1996 613.802129915812      0.2043E-03  0.6727E-05  0.5000E-01
 CRAZY|   1997 613.802129913810      0.2043E-03  0.6727E-05  0.5000E-01
 CRAZY|   1998 613.802129911808      0.2043E-03  0.6727E-05  0.5000E-01
 CRAZY|   1999 613.802129909804      0.2043E-03  0.6727E-05  0.5000E-01
 CRAZY|   2000 613.802129907802      0.2043E-03  0.6727E-05  0.5000E-01
 Crazy Wannier localization not converged after   2000 iterations, switching to jacobi rotations
         Localization by iterative Jacobi rotation
                      Iteration           Tolerance   Time 
                            100          0.4014E-03   0.000
                            200          0.4029E-03   0.000
                            300          0.4043E-03   0.000
                            400          0.4057E-03   0.000
                            500          0.4071E-03   0.000
                            600          0.4084E-03   0.000
                            700          0.4097E-03   0.000
                            800          0.4109E-03   0.000
                            900          0.4120E-03   0.000
                           1000          0.4131E-03   0.000
                           1100          0.4141E-03   0.000
                           1200          0.4151E-03   0.000
                           1300          0.4160E-03   0.000
                           1400          0.4169E-03   0.000
                           1500          0.4177E-03   0.000
                           1600          0.4184E-03   0.000
                           1700          0.4191E-03   0.000
                           1800          0.4197E-03   0.000
                           1900          0.4203E-03   0.000
                           2000          0.4208E-03   0.000
               Localization  for spin   1 converged in   2000 iterations
          Spread Functional     sum_in -w_i ln(|z_in|^2)    sum_in w_i(1-|z_in|^2)
    Total Spread (Berry) :                  16.0353635806       15.5477893621

  Electronic density on regular grids:        -16.0000000093       -0.0000000093
  Core density on regular grids:               16.0000000000        0.0000000000
  Total charge density on r-space grids:       -0.0000000093
  Total charge density g-space grids:          -0.0000000093


 ENERGY| Total FORCE_EVAL ( QS ) energy (a.u.):              -37.767200349135024


 -------------------------------------------------------------------------------
 ----                             MULTIGRID INFO                            ----
 -------------------------------------------------------------------------------
 count for grid        1:          24216          cutoff [a.u.]          175.00
 count for grid        2:          15952          cutoff [a.u.]           58.33
 count for grid        3:          11592          cutoff [a.u.]           19.44
 count for grid        4:           4728          cutoff [a.u.]            6.48
 count for grid        5:            524          cutoff [a.u.]            2.16
 total gridlevel count  :          57012

 -------------------------------------------------------------------------------
 -                                                                             -
 -                         MESSAGE PASSING PERFORMANCE                         -
 -                                                                             -
 -------------------------------------------------------------------------------

 ROUTINE             CALLS  TOT TIME [s]  AVE VOLUME [Bytes]  PERFORMANCE [MB/s]
 MP_Group                6         0.000
 MP_Bcast              338         0.001                 10.                5.63
 MP_Allreduce        24471        20.669                 27.                0.03
 MP_Sync                 5         0.000
 -------------------------------------------------------------------------------


 -------------------------------------------------------------------------------
 -                                                                             -
 -                           R E F E R E N C E S                               -
 -                                                                             -
 -------------------------------------------------------------------------------
 
 CP2K version 2.2.107 (Development Version), the CP2K developers group (2011).
 CP2K is freely available from http://cp2k.berlios.de/ .

 Grimme, S. 
 JOURNAL OF COMPUTATIONAL CHEMISTRY, 27 (15), 1787-1799 (2006). 
 Semiempirical GGA-type density functional constructed with a long-range
 dispersion correction.
 http://dx.doi.org/10.1002/jcc.20495


 Krack, M. 
 THEORETICAL CHEMISTRY ACCOUNTS, 114 (1-3), 145-152 (2005). 
 Pseudopotentials for H to Kr optimized for gradient-corrected
 exchange-correlation functionals.
 http://dx.doi.org/10.1007/s00214-005-0655-y


 VandeVondele, J; Krack, M; Mohamed, F; Parrinello, M; Chassaing, T;
 Hutter, J. COMPUTER PHYSICS COMMUNICATIONS, 167 (2), 103-128 (2005). 
 QUICKSTEP: Fast and accurate density functional calculations using a
 mixed Gaussian and plane waves approach.
 http://dx.doi.org/10.1016/j.cpc.2004.12.014


 Frigo, M; Johnson, SG. 
 PROCEEDINGS OF THE IEEE, 93 (2), 216-231 (2005). 
 The design and implementation of FFTW3.
 http://dx.doi.org/10.1109/JPROC.2004.840301


 VandeVondele, J; Hutter, J. 
 JOURNAL OF CHEMICAL PHYSICS, 118 (10), 4365-4369 (2003). 
 An efficient orbital transformation method for electronic structure
 calculations.
 http://dx.doi.org/10.1063/1.1543154


 Martyna, GJ; Tuckerman, ME. 
 JOURNAL OF CHEMICAL PHYSICS, 110 (6), 2810-2821 (1999). 
 A reciprocal space based method for treating long range interactions in
 ab initio and force-field-based calculations in clusters.
 http://dx.doi.org/10.1063/1.477923


 Hartwigsen, C; Goedecker, S; Hutter, J. 
 PHYSICAL REVIEW B, 58 (7), 3641-3662 (1998). 
 Relativistic separable dual-space Gaussian pseudopotentials from H to Rn.
 http://dx.doi.org/10.1103/PhysRevB.58.3641


 Lippert, G; Hutter, J; Parrinello, M. 
 MOLECULAR PHYSICS, 92 (3), 477-487 (1997). 
 A hybrid Gaussian and plane wave density functional scheme.
 http://dx.doi.org/10.1080/002689797170220


 Perdew, JP; Burke, K; Ernzerhof, M. 
 PHYSICAL REVIEW LETTERS, 77 (18), 3865-3868 (1996). 
 Generalized gradient approximation made simple.
 http://dx.doi.org/10.1103/PhysRevLett.77.3865


 Goedecker, S; Teter, M; Hutter, J. 
 PHYSICAL REVIEW B, 54 (3), 1703-1710 (1996). 
 Separable dual-space Gaussian pseudopotentials.
 http://dx.doi.org/10.1103/PhysRevB.54.1703


 -------------------------------------------------------------------------------
 -                                                                             -
 -                                T I M I N G                                  -
 -                                                                             -
 -------------------------------------------------------------------------------
 SUBROUTINE                       CALLS  ASD         SELF TIME        TOTAL TIME
                                              AVERAGE  MAXIMUM  AVERAGE  MAXIMUM
 CP2K                                 1  1.0    0.186    0.186  241.113  241.113
 rep_env_calc_e_f                     4  2.0    0.017    0.017  238.002  238.002
 qs_forces                            4  3.0    0.001    0.001  217.365  217.365
 qs_energies_scf                      4  4.0    0.091    0.091  205.065  205.065
 scf_env_do_scf                       4  5.0    0.009    0.009  195.021  195.021
 qs_ks_build_kohn_sham_matrix        53  7.8    1.147    1.147  177.002  177.002
 scf_env_do_scf_inner_loop           49  6.0    0.032    0.032  175.619  175.619
 qs_ks_update_qs_env                 54  7.0    0.000    0.000  164.736  164.736
 fft_wrap_pw1pw2                   1012 10.6    0.018    0.018  141.088  141.088
 qs_vxc_create                       53  8.8    0.045    0.045  138.517  138.517
 xc_vxc_pw_create                    53  9.8    2.466    2.466  138.472  138.472
 fft_wrap_pw1pw2_180                587 11.7    7.487    7.487  135.213  135.213
 fft3d_s                           1014 12.6  100.552  100.552  100.555  100.555
 xc_rho_set_and_dset_create          53 10.8    3.128    3.128   78.741   78.741
 xc_functional_eval                  53 11.8    0.027    0.027   34.395   34.395
 pbe_lda_eval                        53 12.8   34.369   34.369   34.369   34.369
 qs_rho_update_rho                   53  7.1    0.001    0.001   32.068   32.068
 calculate_rho_elec                  53  8.1    1.414    1.414   32.067   32.067
 density_rs2pw                       53  9.1    0.055    0.055   29.795   29.795
 rep_env_sync                         7  2.6   20.651   20.651   20.651   20.651
 init_scf_loop                        5  6.0    0.053    0.053   19.393   19.393
 integrate_v_rspace                  53  8.8    1.085    1.085   17.925   17.925
 pw_gather_s                        482 12.3   17.344   17.344   17.344   17.344
 potential_pw2rs                     53  9.8    0.180    0.180   16.832   16.832
 pw_scatter_s                       530 12.8   15.256   15.256   15.256   15.256
 qs_ks_update_qs_env_forces           4  4.0    0.000    0.000   12.268   12.268
 pw_derive                          318 11.3    8.487    8.487    8.487    8.487
 pw_copy                            636 10.8    6.195    6.195    6.195    6.195
 pw_poisson_solve                    53  8.8    2.810    2.810    5.649    5.649
 -------------------------------------------------------------------------------

  **** **** ******  **  PROGRAM ENDED AT                 2011-08-14 10:30:32.088
 ***** ** ***  *** **   PROGRAM RAN ON                                  r11i3n15
 **    ****   ******    PROGRAM RAN BY                                          
 ***** **    ** ** **   PROGRAM PROCESS ID                                   706
  **** **  *******  **  PROGRAM STOPPED IN   /usr/local/u/jmlarkin/CP2K/CdSe/vib
