
  **** **** ******  **  PROGRAM STARTED AT               2011-08-14 10:26:23.936
 ***** ** ***  *** **   PROGRAM STARTED ON                              r11i3n15
 **    ****   ******    PROGRAM STARTED BY                                      
 ***** **    ** ** **   PROGRAM PROCESS ID                                   711
  **** **  *******  **  PROGRAM STARTED IN   /usr/local/u/jmlarkin/CP2K/CdSe/vib

 CP2K| version string:                CP2K version 2.2.107 (Development Version)
 CP2K| is freely available from                          http://cp2k.berlios.de/
 CP2K| Program compiled at                          Tue Jun  7 13:15:52 CDT 2011
 CP2K| Program compiled on                                             diamond01
 CP2K| Program compiled for                                   Linux-x86-64-intel
 CP2K| Last CVS entry                 cp2k_info.F/1.511/Wed Jan 19 04:35:13 2011
 CP2K| Input file name                                              temp-r-4.inp
 
 GLOBAL| Force Environment number                                              1
 GLOBAL| Basis set file name            /usr/local/u/jmlarkin/CP2K/CdSe/vib/GTH_
 GLOBAL| Geminal file name                                         BASIS_GEMINAL
 GLOBAL| Potential file name            /usr/local/u/jmlarkin/CP2K/CdSe/vib/POTE
 GLOBAL| MM Potential file name                                     MM_POTENTIAL
 GLOBAL| Coordinate file name                                      __STD_INPUT__
 GLOBAL| Method name                                                        CP2K
 GLOBAL| Project name                                                   temp-r-4
 GLOBAL| Preferred FFT library                                             FFTW3
 GLOBAL| Run type                                           VIBRATIONAL_ANALYSIS
 GLOBAL| All-to-all communication in single precision                          F
 GLOBAL| FFTs using library dependent lengths                                  F
 GLOBAL| Global print level                                               MEDIUM
 GLOBAL| Total number of message passing processes                             1
 GLOBAL| Number of threads for this process                                    1
 GLOBAL| This output is from process                                           0

 MEMORY| system memory details [Kb]
 MEMORY|                        rank 0           min           max       average
 MEMORY| MemTotal                    0             0             0             0
 MEMORY| MemFree                     0             0             0             0
 MEMORY| Buffers                     0             0             0             0
 MEMORY| Cached                      0             0             0             0
 MEMORY| Slab                        0             0             0             0
 MEMORY| SReclaimable                0             0             0             0
 MEMORY| MemLikelyFree               0             0             0             0

 WARNING : FFT library FFTW3 is not available  Trying FFTSG as a default

 *** Fundamental physical constants (SI units) ***

 *** Literature: B. J. Mohr and B. N. Taylor,
 ***             CODATA recommended values of the fundamental physical
 ***             constants: 2006, Web Version 5.1
 ***             http://physics.nist.gov/constants

 Speed of light in vacuum [m/s]                             2.99792458000000E+08
 Magnetic constant or permeability of vacuum [N/A**2]       1.25663706143592E-06
 Electric constant or permittivity of vacuum [F/m]          8.85418781762039E-12
 Planck constant (h) [J*s]                                  6.62606896000000E-34
 Planck constant (h-bar) [J*s]                              1.05457162825177E-34
 Elementary charge [C]                                      1.60217648700000E-19
 Electron mass [kg]                                         9.10938215000000E-31
 Electron g factor [ ]                                     -2.00231930436220E+00
 Proton mass [kg]                                           1.67262163700000E-27
 Fine-structure constant                                    7.29735253760000E-03
 Rydberg constant [1/m]                                     1.09737315685270E+07
 Avogrado constant [1/mol]                                  6.02214179000000E+23
 Boltzmann constant [J/K]                                   1.38065040000000E-23
 Atomic mass unit [kg]                                      1.66053878200000E-27
 Bohr radius [m]                                            5.29177208590000E-11

 *** Conversion factors ***

 [u] -> [a.u.]                                              1.82288848426455E+03
 [Angstrom] -> [Bohr] = [a.u.]                              1.88972613288564E+00
 [a.u.] = [Bohr] -> [Angstrom]                              5.29177208590000E-01
 [a.u.] -> [s]                                              2.41888432650478E-17
 [a.u.] -> [fs]                                             2.41888432650478E-02
 [a.u.] -> [J]                                              4.35974393937059E-18
 [a.u.] -> [K]                                              3.15774647902944E+05
 [a.u.] -> [kJ/mol]                                         2.62549961709828E+03
 [a.u.] -> [kcal/mol]                                       6.27509468713739E+02
 [a.u.] -> [Pa]                                             2.94210107994716E+13
 [a.u.] -> [bar]                                            2.94210107994716E+08
 [a.u.] -> [atm]                                            2.90362800883016E+08
 [a.u.] -> [eV]                                             2.72113838565563E+01
 [a.u.] -> [Hz]                                             6.57968392072181E+15
 [a.u.] -> [1/cm] (wave numbers)                            2.19474631370540E+05
 [a.u./Bohr**2] -> [1/cm]                                   5.14048714338585E+03
 

 CELL| Volume [angstrom^3]:                                             1300.000
 CELL| Vector a [angstrom]:      10.000     0.000     0.000    |a| =      10.000
 CELL| Vector b [angstrom]:       0.000    10.000     0.000    |b| =      10.000
 CELL| Vector c [angstrom]:       0.000     0.000    13.000    |c| =      13.000
 CELL| Angle (b,c), alpha [degree]:                                       90.000
 CELL| Angle (a,c), beta  [degree]:                                       90.000
 CELL| Angle (a,b), gamma [degree]:                                       90.000

 CELL_REF| Volume [angstrom^3]:                                         1300.000
 CELL_REF| Vector a [angstrom    10.000     0.000     0.000    |a| =      10.000
 CELL_REF| Vector b [angstrom     0.000    10.000     0.000    |b| =      10.000
 CELL_REF| Vector c [angstrom     0.000     0.000    13.000    |c| =      13.000
 CELL_REF| Angle (b,c), alpha [degree]:                                   90.000
 CELL_REF| Angle (a,c), beta  [degree]:                                   90.000
 CELL_REF| Angle (a,b), gamma [degree]:                                   90.000

 CELL_TOP| Volume [angstrom^3]:                                         1300.000
 CELL_TOP| Vector a [angstrom    10.000     0.000     0.000    |a| =      10.000
 CELL_TOP| Vector b [angstrom     0.000    10.000     0.000    |b| =      10.000
 CELL_TOP| Vector c [angstrom     0.000     0.000    13.000    |c| =      13.000
 CELL_TOP| Angle (b,c), alpha [degree]:                                   90.000
 CELL_TOP| Angle (a,c), beta  [degree]:                                   90.000
 CELL_TOP| Angle (a,b), gamma [degree]:                                   90.000
 
 GENERATE|  Preliminary Number of Bonds generated:                             0
 GENERATE|  Achieved consistency in connectivity generation.
 GENERATE|  Number of Bonds generated:                                         0
 GENERATE|  Preliminary Number of Bends generated:                             0
 GENERATE|  Number of Bends generated:                                         0
 GENERATE|  Number of UB generated:                                            0
 GENERATE|  Preliminary Number of Torsions generated:                          0
 GENERATE|  Number of Torsions generated:                                      0
 GENERATE|  Number of Impropers generated:                                     0
 GENERATE|  Number of 1-4 interactions generated:                              0

 *******************************************************************************
 *******************************************************************************
 **                                                                           **
 **     #####                         ##              ##                      **
 **    ##   ##            ##          ##              ##                      **
 **   ##     ##                       ##            ######                    **
 **   ##     ##  ##   ##  ##   #####  ##  ##   ####   ##    #####    #####    **
 **   ##     ##  ##   ##  ##  ##      ## ##   ##      ##   ##   ##  ##   ##   **
 **   ##  ## ##  ##   ##  ##  ##      ####     ###    ##   ######   ######    **
 **    ##  ###   ##   ##  ##  ##      ## ##      ##   ##   ##       ##        **
 **     #######   #####   ##   #####  ##  ##  ####    ##    #####   ##        **
 **           ##                                                    ##        **
 **                                                                           **
 **                                                ... make the atoms dance   **
 **                                                                           **
 **            Copyright (C) by CP2K Developers Group (2000 - 2011)           **
 **                                                                           **
 *******************************************************************************

 DFT| Spin restricted Kohn-Sham (RKS) calculation                            RKS
 DFT| Multiplicity                                                             1
 DFT| Number of spin states                                                    1
 DFT| Charge                                                                   0
 DFT| Self-interaction correction (SIC)                                       NO
 DFT| Cutoffs: density                                              1.000000E-10
 DFT|          gradient                                             1.000000E-10
 DFT|          tau                                                  1.000000E-10
 DFT|          cutoff_smoothing_range                               0.000000E+00
 DFT| XC density smoothing                                                  NONE
 DFT| XC derivatives                                                          PW
 FUNCTIONAL| ROUTINE=NEW
 FUNCTIONAL| PBE:
 FUNCTIONAL| J.P.Perdew, K.Burke, M.Ernzerhof, Phys. Rev. Letter, vol. 77, n 18,
 FUNCTIONAL|  pp. 3865-3868, (1996){spin unpolarized}
 vdW POTENTIAL|                                                   Pair Potential
 vdW POTENTIAL|                   Potential Form: S. Grimme, JCC 27: 1787 (2006)
 vdW POTENTIAL|                   Cutoff Radius [Bohr]:                    20.00
 vdW POTENTIAL|                   Scaling Factor:                         0.7500
 vdW POTENTIAL|                   Exp Prefactor for Damping:                20.0
 vdW PARAMETER|  Atom=O    C6[J*nm^6*mol^-1]=  0.7000         r(vdW)[A]=  1.3420
 vdW PARAMETER|  Atom=C    C6[J*nm^6*mol^-1]=  1.7500         r(vdW)[A]=  1.4520

 QS| Method:                                                                 GPW
 QS| Density plane wave grid type                        NON-SPHERICAL FULLSPACE
 QS| Number of grid levels:                                                    5
 QS| Density cutoff [a.u.]:                                                175.0
 QS| Multi grid cutoff [a.u.]: 1) grid level                               175.0
 QS|                           2) grid level                                58.3
 QS|                           3) grid level                                19.4
 QS|                           4) grid level                                 6.5
 QS|                           5) grid level                                 2.2
 QS| Grid level progression factor:                                          3.0
 QS| Relative density cutoff [a.u.]:                                        15.0
 QS| Consistent realspace mapping and integration 
 QS| Interaction thresholds: eps_pgf_orb:                                1.0E-06
 QS|                         eps_filter_matrix:                          0.0E+00
 QS|                         eps_core_charge:                            1.0E-14
 QS|                         eps_rho_gspace:                             1.0E-12
 QS|                         eps_rho_rspace:                             1.0E-12
 QS|                         eps_gvg_rspace:                             1.0E-06
 QS|                         eps_ppl:                                    1.0E-02
 QS|                         eps_ppnl:                                   1.0E-08


 ATOMIC KIND INFORMATION

  1. Atomic kind: O                                     Number of atoms:       2

     Orbital basis set information for                                 QZV2P-GTH

       Number of orbital shell sets:                                           2
       Number of orbital shells:                                              10
       Number of primitive Cartesian functions:                                8
       Number of Cartesian basis functions:                                   28
       Number of spherical basis functions:                                   26

       Normalised Cartesian orbitals:

                        Set   Shell   Orbital            Exponent    Coefficient

                          1       1    2s               11.829868      -0.299448
                                                         4.932631      -0.313061
                                                         1.931300       0.178604
                                                         0.772400       0.305726
                                                         0.297633       0.124142
                                                         0.107006       0.008000

                          1       2    3s               11.829868       0.000000
                                                         4.932631       0.000000
                                                         1.931300       0.000000
                                                         0.772400       0.587208
                                                         0.297633       0.000000
                                                         0.107006       0.000000

                          1       3    4s               11.829868       0.000000
                                                         4.932631       0.000000
                                                         1.931300       0.000000
                                                         0.772400       0.000000
                                                         0.297633       0.287191
                                                         0.107006       0.000000

                          1       4    5s               11.829868       0.000000
                                                         4.932631       0.000000
                                                         1.931300       0.000000
                                                         0.772400       0.000000
                                                         0.297633       0.000000
                                                         0.107006       0.133342

                          1       5    3px              11.829868       1.219605
                                                         4.932631       1.393422
                                                         1.931300       0.888549
                                                         0.772400       0.378112
                                                         0.297633       0.103178
                                                         0.107006       0.011555
                          1       5    3py              11.829868       1.219605
                                                         4.932631       1.393422
                                                         1.931300       0.888549
                                                         0.772400       0.378112
                                                         0.297633       0.103178
                                                         0.107006       0.011555
                          1       5    3pz              11.829868       1.219605
                                                         4.932631       1.393422
                                                         1.931300       0.888549
                                                         0.772400       0.378112
                                                         0.297633       0.103178
                                                         0.107006       0.011555

                          1       6    4px              11.829868       0.000000
                                                         4.932631       0.000000
                                                         1.931300       0.000000
                                                         0.772400       1.032151
                                                         0.297633       0.000000
                                                         0.107006       0.000000
                          1       6    4py              11.829868       0.000000
                                                         4.932631       0.000000
                                                         1.931300       0.000000
                                                         0.772400       1.032151
                                                         0.297633       0.000000
                                                         0.107006       0.000000
                          1       6    4pz              11.829868       0.000000
                                                         4.932631       0.000000
                                                         1.931300       0.000000
                                                         0.772400       1.032151
                                                         0.297633       0.000000
                                                         0.107006       0.000000

                          1       7    5px              11.829868       0.000000
                                                         4.932631       0.000000
                                                         1.931300       0.000000
                                                         0.772400       0.000000
                                                         0.297633       0.313359
                                                         0.107006       0.000000
                          1       7    5py              11.829868       0.000000
                                                         4.932631       0.000000
                                                         1.931300       0.000000
                                                         0.772400       0.000000
                                                         0.297633       0.313359
                                                         0.107006       0.000000
                          1       7    5pz              11.829868       0.000000
                                                         4.932631       0.000000
                                                         1.931300       0.000000
                                                         0.772400       0.000000
                                                         0.297633       0.313359
                                                         0.107006       0.000000

                          1       8    6px              11.829868       0.000000
                                                         4.932631       0.000000
                                                         1.931300       0.000000
                                                         0.772400       0.000000
                                                         0.297633       0.000000
                                                         0.107006       0.087237
                          1       8    6py              11.829868       0.000000
                                                         4.932631       0.000000
                                                         1.931300       0.000000
                                                         0.772400       0.000000
                                                         0.297633       0.000000
                                                         0.107006       0.087237
                          1       8    6pz              11.829868       0.000000
                                                         4.932631       0.000000
                                                         1.931300       0.000000
                                                         0.772400       0.000000
                                                         0.297633       0.000000
                                                         0.107006       0.087237

                          2       1    3dx2              2.314000       7.145709
                                                         0.645000       0.000000
                          2       1    3dxy              2.314000      12.376731
                                                         0.645000       0.000000
                          2       1    3dxz              2.314000      12.376731
                                                         0.645000       0.000000
                          2       1    3dy2              2.314000       7.145709
                                                         0.645000       0.000000
                          2       1    3dyz              2.314000      12.376731
                                                         0.645000       0.000000
                          2       1    3dz2              2.314000       7.145709
                                                         0.645000       0.000000

                          2       2    4dx2              2.314000       0.000000
                                                         0.645000       0.764080
                          2       2    4dxy              2.314000       0.000000
                                                         0.645000       1.323426
                          2       2    4dxz              2.314000       0.000000
                                                         0.645000       1.323426
                          2       2    4dy2              2.314000       0.000000
                                                         0.645000       0.764080
                          2       2    4dyz              2.314000       0.000000
                                                         0.645000       1.323426
                          2       2    4dz2              2.314000       0.000000
                                                         0.645000       0.764080

     Potential information for                                        GTH-PBE-q6

       Description:                       Goedecker-Teter-Hutter pseudopotential
                                           Goedecker et al., PRB 54, 1703 (1996)
                                          Hartwigsen et al., PRB 58, 3641 (1998)
                                                      Krack, TCA 114, 145 (2005)

       Gaussian exponent of the core charge distribution:               8.360253
       Electronic configuration (s p d ...):                               2   4

       Parameters of the local part of the GTH pseudopotential:

                          rloc        C1          C2          C3          C4
                        0.244554  -16.667215    2.487311

       Parameters of the non-local part of the GTH pseudopotential:

                   l      r(l)      h(i,j,l)

                   0    0.220956   18.337458
                   1    0.211332

  2. Atomic kind: C                                     Number of atoms:       1

     Orbital basis set information for                                 QZV2P-GTH

       Number of orbital shell sets:                                           2
       Number of orbital shells:                                              10
       Number of primitive Cartesian functions:                                8
       Number of Cartesian basis functions:                                   28
       Number of spherical basis functions:                                   26

       Normalised Cartesian orbitals:

                        Set   Shell   Orbital            Exponent    Coefficient

                          1       1    2s                6.211790      -0.181428
                                                         2.606342      -0.189726
                                                         1.011026       0.098111
                                                         0.409977       0.189293
                                                         0.161541       0.080390
                                                         0.059735       0.005156

                          1       2    3s                6.211790       0.000000
                                                         2.606342       0.000000
                                                         1.011026       0.000000
                                                         0.409977       0.365157
                                                         0.161541       0.000000
                                                         0.059735       0.000000

                          1       3    4s                6.211790       0.000000
                                                         2.606342       0.000000
                                                         1.011026       0.000000
                                                         0.409977       0.000000
                                                         0.161541       0.181603
                                                         0.059735       0.000000

                          1       4    5s                6.211790       0.000000
                                                         2.606342       0.000000
                                                         1.011026       0.000000
                                                         0.409977       0.000000
                                                         0.161541       0.000000
                                                         0.059735       0.086116

                          1       5    3px               6.211790       0.455098
                                                         2.606342       0.567807
                                                         1.011026       0.369480
                                                         0.409977       0.170387
                                                         0.161541       0.050941
                                                         0.059735       0.005893
                          1       5    3py               6.211790       0.455098
                                                         2.606342       0.567807
                                                         1.011026       0.369480
                                                         0.409977       0.170387
                                                         0.161541       0.050941
                                                         0.059735       0.005893
                          1       5    3pz               6.211790       0.455098
                                                         2.606342       0.567807
                                                         1.011026       0.369480
                                                         0.409977       0.170387
                                                         0.161541       0.050941
                                                         0.059735       0.005893

                          1       6    4px               6.211790       0.000000
                                                         2.606342       0.000000
                                                         1.011026       0.000000
                                                         0.409977       0.467616
                                                         0.161541       0.000000
                                                         0.059735       0.000000
                          1       6    4py               6.211790       0.000000
                                                         2.606342       0.000000
                                                         1.011026       0.000000
                                                         0.409977       0.467616
                                                         0.161541       0.000000
                                                         0.059735       0.000000
                          1       6    4pz               6.211790       0.000000
                                                         2.606342       0.000000
                                                         1.011026       0.000000
                                                         0.409977       0.467616
                                                         0.161541       0.000000
                                                         0.059735       0.000000

                          1       7    5px               6.211790       0.000000
                                                         2.606342       0.000000
                                                         1.011026       0.000000
                                                         0.409977       0.000000
                                                         0.161541       0.145980
                                                         0.059735       0.000000
                          1       7    5py               6.211790       0.000000
                                                         2.606342       0.000000
                                                         1.011026       0.000000
                                                         0.409977       0.000000
                                                         0.161541       0.145980
                                                         0.059735       0.000000
                          1       7    5pz               6.211790       0.000000
                                                         2.606342       0.000000
                                                         1.011026       0.000000
                                                         0.409977       0.000000
                                                         0.161541       0.145980
                                                         0.059735       0.000000

                          1       8    6px               6.211790       0.000000
                                                         2.606342       0.000000
                                                         1.011026       0.000000
                                                         0.409977       0.000000
                                                         0.161541       0.000000
                                                         0.059735       0.042095
                          1       8    6py               6.211790       0.000000
                                                         2.606342       0.000000
                                                         1.011026       0.000000
                                                         0.409977       0.000000
                                                         0.161541       0.000000
                                                         0.059735       0.042095
                          1       8    6pz               6.211790       0.000000
                                                         2.606342       0.000000
                                                         1.011026       0.000000
                                                         0.409977       0.000000
                                                         0.161541       0.000000
                                                         0.059735       0.042095

                          2       1    3dx2              1.097000       1.935401
                                                         0.318000       0.000000
                          2       1    3dxy              1.097000       3.352214
                                                         0.318000       0.000000
                          2       1    3dxz              1.097000       3.352214
                                                         0.318000       0.000000
                          2       1    3dy2              1.097000       1.935401
                                                         0.318000       0.000000
                          2       1    3dyz              1.097000       3.352214
                                                         0.318000       0.000000
                          2       1    3dz2              1.097000       1.935401
                                                         0.318000       0.000000

                          2       2    4dx2              1.097000       0.000000
                                                         0.318000       0.221644
                          2       2    4dxy              1.097000       0.000000
                                                         0.318000       0.383899
                          2       2    4dxz              1.097000       0.000000
                                                         0.318000       0.383899
                          2       2    4dy2              1.097000       0.000000
                                                         0.318000       0.221644
                          2       2    4dyz              1.097000       0.000000
                                                         0.318000       0.383899
                          2       2    4dz2              1.097000       0.000000
                                                         0.318000       0.221644

     Potential information for                                        GTH-PBE-q4

       Description:                       Goedecker-Teter-Hutter pseudopotential
                                           Goedecker et al., PRB 54, 1703 (1996)
                                          Hartwigsen et al., PRB 58, 3641 (1998)
                                                      Krack, TCA 114, 145 (2005)

       Gaussian exponent of the core charge distribution:               4.364419
       Electronic configuration (s p d ...):                               2   2

       Parameters of the local part of the GTH pseudopotential:

                          rloc        C1          C2          C3          C4
                        0.338471   -8.803674    1.339211

       Parameters of the non-local part of the GTH pseudopotential:

                   l      r(l)      h(i,j,l)

                   0    0.302576    9.622487
                   1    0.291507


 MOLECULE KIND INFORMATION


 All atoms are their own molecule, skipping detailed information


 TOTAL NUMBERS AND MAXIMUM NUMBERS

  Total number of            - Atomic kinds:                                   2
                             - Atoms:                                          3
                             - Shell sets:                                     6
                             - Shells:                                        30
                             - Primitive Cartesian functions:                 24
                             - Cartesian basis functions:                     84
                             - Spherical basis functions:                     78

  Maximum angular momentum of- Orbital basis functions:                        2
                             - Local part of the GTH pseudopotential:          2
                             - Non-local part of the GTH pseudopotential:      0


 MODULE QUICKSTEP:  ATOMIC COORDINATES IN angstrom

  Atom  Kind  Element       X           Y           Z          Z(eff)       Mass

       1     1 O    8    0.000000    0.000000   -1.167609      6.00      15.9994
       2     1 O    8    0.000000    0.000000    1.167609      6.00      15.9994
       3     2 C    6    0.000000    0.000000    0.000000      4.00      12.0107




 SCF PARAMETERS         Density guess:                                   RESTART
                        --------------------------------------------------------
                        max_scf:                                              30
                        max_scf_history:                                       0
                        max_diis:                                              4
                        --------------------------------------------------------
                        eps_scf:                                        1.00E-06
                        eps_scf_history:                                0.00E+00
                        eps_diis:                                       1.00E-01
                        eps_eigval:                                     1.00E-05
                        --------------------------------------------------------
                        level_shift [a.u.]:                                 0.00
                        --------------------------------------------------------
                        Outer loop SCF in use 
                        No variables optimised in outer loop
                        eps_scf                                         1.00E-06
                        max_scf                                               20
                        No outer loop optimization
                        step_size                                       5.00E-01

 PW_GRID: Information for grid number                                          7
 PW_GRID: Cutoff [a.u.]                                                    350.0
 PW_GRID: spherical cutoff:                                                   NO
 PW_GRID:   Bounds   1            -80      79                Points:         160
 PW_GRID:   Bounds   2            -80      79                Points:         160
 PW_GRID:   Bounds   3           -108     107                Points:         216
 PW_GRID: Volume element (a.u.^3)  0.1587E-02     Volume (a.u.^3)      8772.8350
 PW_GRID: Grid span                                                    FULLSPACE

 PW_GRID: Information for grid number                                          8
 PW_GRID: Cutoff [a.u.]                                                    175.0
 PW_GRID: spherical cutoff:                                                   NO
 PW_GRID:   Bounds   1            -60      59                Points:         120
 PW_GRID:   Bounds   2            -60      59                Points:         120
 PW_GRID:   Bounds   3            -75      74                Points:         150
 PW_GRID: Volume element (a.u.^3)  0.4061E-02     Volume (a.u.^3)      8772.8350
 PW_GRID: Grid span                                                    FULLSPACE

 PW_GRID: Information for grid number                                          9
 PW_GRID: Cutoff [a.u.]                                                     58.3
 PW_GRID: spherical cutoff:                                                   NO
 PW_GRID:   Bounds   1            -36      35                Points:          72
 PW_GRID:   Bounds   2            -36      35                Points:          72
 PW_GRID:   Bounds   3            -45      44                Points:          90
 PW_GRID: Volume element (a.u.^3)  0.1880E-01     Volume (a.u.^3)      8772.8350
 PW_GRID: Grid span                                                    FULLSPACE

 PW_GRID: Information for grid number                                         10
 PW_GRID: Cutoff [a.u.]                                                     19.4
 PW_GRID: spherical cutoff:                                                   NO
 PW_GRID:   Bounds   1            -20      19                Points:          40
 PW_GRID:   Bounds   2            -20      19                Points:          40
 PW_GRID:   Bounds   3            -27      26                Points:          54
 PW_GRID: Volume element (a.u.^3)  0.1015         Volume (a.u.^3)      8772.8350
 PW_GRID: Grid span                                                    FULLSPACE

 PW_GRID: Information for grid number                                         11
 PW_GRID: Cutoff [a.u.]                                                      6.5
 PW_GRID: spherical cutoff:                                                   NO
 PW_GRID:   Bounds   1            -12      11                Points:          24
 PW_GRID:   Bounds   2            -12      11                Points:          24
 PW_GRID:   Bounds   3            -15      14                Points:          30
 PW_GRID: Volume element (a.u.^3)  0.5077         Volume (a.u.^3)      8772.8350
 PW_GRID: Grid span                                                    FULLSPACE

 PW_GRID: Information for grid number                                         12
 PW_GRID: Cutoff [a.u.]                                                      2.2
 PW_GRID: spherical cutoff:                                                   NO
 PW_GRID:   Bounds   1             -7       7                Points:          15
 PW_GRID:   Bounds   2             -7       7                Points:          15
 PW_GRID:   Bounds   3             -9       8                Points:          18
 PW_GRID: Volume element (a.u.^3)   2.166         Volume (a.u.^3)      8772.8350
 PW_GRID: Grid span                                                    FULLSPACE

 RS_GRID: Information for grid number                                          8
 RS_GRID:   Bounds   1            -60      59                Points:         120
 RS_GRID:   Bounds   2            -60      59                Points:         120
 RS_GRID:   Bounds   3            -75      74                Points:         150

 RS_GRID: Information for grid number                                          9
 RS_GRID:   Bounds   1            -36      35                Points:          72
 RS_GRID:   Bounds   2            -36      35                Points:          72
 RS_GRID:   Bounds   3            -45      44                Points:          90

 RS_GRID: Information for grid number                                         10
 RS_GRID:   Bounds   1            -20      19                Points:          40
 RS_GRID:   Bounds   2            -20      19                Points:          40
 RS_GRID:   Bounds   3            -27      26                Points:          54

 RS_GRID: Information for grid number                                         11
 RS_GRID:   Bounds   1            -12      11                Points:          24
 RS_GRID:   Bounds   2            -12      11                Points:          24
 RS_GRID:   Bounds   3            -15      14                Points:          30

 RS_GRID: Information for grid number                                         12
 RS_GRID:   Bounds   1             -7       7                Points:          15
 RS_GRID:   Bounds   2             -7       7                Points:          15
 RS_GRID:   Bounds   3             -9       8                Points:          18

 DISTRIBUTION OF THE PARTICLES (ROWS)
              Process row      Number of particles         Number of matrix rows
                        0                        3                            -1
                      Sum                        3                            -1

 DISTRIBUTION OF THE PARTICLES (COLUMNS)
              Process col      Number of particles      Number of matrix columns
                        0                        3                            -1
                      Sum                        3                            -1

 DISTRIBUTION OF THE NEIGHBOR LISTS
              Total number of particle pairs:                                 39
              Total number of matrix elements:                             26364
              Average number of particle pairs:                               39
              Maximum number of particle pairs:                               39
              Average number of matrix element:                            26364
              Maximum number of matrix elements:                           26364


 DISTRIBUTION OF THE OVERLAP MATRIX
              Number  of non-zero blocks:                                      6
              Percentage non-zero blocks:                                 100.00
              Average number of blocks per CPU:                                6
              Maximum number of blocks per CPU:                                6
              Average number of matrix elements per CPU:                    4056
              Maximum number of matrix elements per CPU:                    4056

 Number of electrons:                                                         16
 Number of occupied orbitals:                                                  8
 Number of molecular orbitals:                                                 8

 Number of orbital functions:                                                 78
 Number of independent orbital functions:                                     78

 Extrapolation method: initial_guess

 *** 10:26:35 WARNING in qs_initial_guess:calculate_first_density_matrix    ***
 *** err=-300  User requested to restart the wavefunction from the file     ***
 *** named: temp-r-4-RESTART.wfn. This file does not exist. Please check    ***
 *** the existence of the file or change properly the value of the keyword  ***
 *** WFN_RESTART_FILE_NAME. Calculation continues using ATOMIC GUESS.       ***
 *** /usr/local/u/jmlarkin/CP2K/cp2k/makefiles/../src/qs_initial_guess.F    ***
 *** line    231                                                            ***

 Atomic guess: The first density matrix is obtained in terms of atomic orbitals
               and electronic configurations assigned to each atomic kind

 Guess for atomic kind: O

 Electronic structure
    Total number of core electrons                                          2.00
    Total number of valence electrons                                       6.00
    Total number of electrons                                               8.00
    Multiplicity                                                   not specified
    S   [  2.00] 2.00
    P      4.00
 

 *******************************************************************************
                  Iteration          Convergence                     Energy [au]
 *******************************************************************************
                          1         2.18546                     -14.421592257754
                          2         2.69278                     -13.555084223277
                          3        0.447857                     -15.582518344613
                          4        0.533362E-01                 -15.656339190379
                          5        0.343584E-02                 -15.657205503018
                          6        0.157467E-03                 -15.657209313096
                          7        0.668939E-06                 -15.657209321838

 Energy components [Hartree]           Total Energy ::          -15.657209321838
                                        Band Energy ::           -3.002498769363
                                     Kinetic Energy ::           11.774068762364
                                   Potential Energy ::          -27.431278084202
                                      Virial (-V/T) ::            2.329804474379
                                        Core Energy ::          -26.139244223055
                                          XC Energy ::           -3.153870619768
                                     Coulomb Energy ::           13.635905520985
                       Total Pseudopotential Energy ::          -37.948527599483
                       Local Pseudopotential Energy ::          -39.248895363653
                    Nonlocal Pseudopotential Energy ::            1.300367764171
                                        Confinement ::            0.352146140634

 Orbital energies  State     L     Occupation   Energy[a.u.]          Energy[eV]

                       1     0          2.000      -0.865035          -23.538787
                       2     0          0.000       0.148161            4.031658
                       3     0          0.000       1.268684           34.522651
                       4     0          0.000      15.043188          409.345953
 
                       1     1          4.000      -0.318107           -8.656143
                       2     1          0.000       0.229143            6.235300
                       3     1          0.000       1.076359           29.289206
                       4     1          0.000       4.260328          115.929412
 

 Guess for atomic kind: C

 Electronic structure
    Total number of core electrons                                          2.00
    Total number of valence electrons                                       4.00
    Total number of electrons                                               6.00
    Multiplicity                                                   not specified
    S   [  2.00] 2.00
    P      2.00
 

 *******************************************************************************
                  Iteration          Convergence                     Energy [au]
 *******************************************************************************
                          1        0.298189                      -5.146106674700
                          2        0.233825                      -5.202427473298
                          3        0.178756E-01                  -5.283543978370
                          4        0.570045E-03                  -5.284038237521
                          5        0.299436E-04                  -5.284038356028
                          6        0.163542E-06                  -5.284038357465

 Energy components [Hartree]           Total Energy ::           -5.284038357465
                                        Band Energy ::           -1.317146178102
                                     Kinetic Energy ::            3.390422048629
                                   Potential Energy ::           -8.674460406095
                                      Virial (-V/T) ::            2.558519347053
                                        Core Energy ::           -8.295784343766
                                          XC Energy ::           -1.377306946079
                                     Coulomb Energy ::            4.389052932380
                       Total Pseudopotential Energy ::          -11.720389813560
                       Local Pseudopotential Energy ::          -12.366572543168
                    Nonlocal Pseudopotential Energy ::            0.646182729609
                                        Confinement ::            0.341834211642

 Orbital energies  State     L     Occupation   Energy[a.u.]          Energy[eV]

                       1     0          2.000      -0.484432          -13.182076
                       2     0          0.000       0.102012            2.775900
                       3     0          0.000       0.691171           18.807710
                       4     0          0.000       8.065504          219.473523
 
                       1     1          2.000      -0.174141           -4.738609
                       2     1          0.000       0.160398            4.364645
                       3     1          0.000       0.605105           16.465744
                       4     1          0.000       2.314792           62.988684
 
 Re-scaling the density matrix to get the right number of electrons
                  # Electrons              Trace(P)               Scaling factor
                           16                16.000                        1.000


 SCF WAVEFUNCTION OPTIMIZATION

  ----------------------------------- OT ---------------------------------------

  Allowing for rotations:  F
  Optimizing orbital energies:  F
  Minimizer      : DIIS                : direct inversion
                                         in the iterative subspace
                            using      : -   7 DIIS vectors
                                         - safer DIIS on
  Preconditioner : FULL_ALL            : diagonalization, state selective
  Precond_solver : DEFAULT
  stepsize       :    0.15000000
  energy_gap     :    0.00100000

  eps_taylor     :   0.10000E-15
  max_taylor     :             4

  mixed_precision    : F

  ----------------------------------- OT ---------------------------------------

  Step     Update method      Time    Convergence         Total energy    Change
  ------------------------------------------------------------------------------

  Electronic density on regular grids:        -16.0000000129       -0.0000000129
  Core density on regular grids:               16.0000000000        0.0000000000
  Total charge density on r-space grids:       -0.0000000129
  Total charge density g-space grids:          -0.0000000129

     1 OT DIIS     0.15E+00    5.8     0.16154098       -36.1516599840 -3.62E+01

  Electronic density on regular grids:        -16.0000000125       -0.0000000125
  Core density on regular grids:               16.0000000000        0.0000000000
  Total charge density on r-space grids:       -0.0000000126
  Total charge density g-space grids:          -0.0000000126

     2 OT DIIS     0.15E+00    4.4     0.43099973       -35.4475033755  7.04E-01

  Electronic density on regular grids:        -16.0000000171       -0.0000000171
  Core density on regular grids:               16.0000000000        0.0000000000
  Total charge density on r-space grids:       -0.0000000171
  Total charge density g-space grids:          -0.0000000171

     3 OT DIIS     0.15E+00    4.1     0.12435122       -37.0038929832 -1.56E+00

  Electronic density on regular grids:        -16.0000000118       -0.0000000118
  Core density on regular grids:               16.0000000000        0.0000000000
  Total charge density on r-space grids:       -0.0000000118
  Total charge density g-space grids:          -0.0000000118

     4 OT DIIS     0.15E+00    4.1     0.07996012       -37.3996091168 -3.96E-01

  Electronic density on regular grids:        -16.0000000124       -0.0000000124
  Core density on regular grids:               16.0000000000        0.0000000000
  Total charge density on r-space grids:       -0.0000000124
  Total charge density g-space grids:          -0.0000000124

     5 OT DIIS     0.15E+00    4.0     0.05397615       -37.6041654793 -2.05E-01

  Electronic density on regular grids:        -16.0000000105       -0.0000000105
  Core density on regular grids:               16.0000000000        0.0000000000
  Total charge density on r-space grids:       -0.0000000105
  Total charge density g-space grids:          -0.0000000105

     6 OT DIIS     0.15E+00    3.9     0.06195545       -37.6897369068 -8.56E-02

  Electronic density on regular grids:        -16.0000000109       -0.0000000109
  Core density on regular grids:               16.0000000000        0.0000000000
  Total charge density on r-space grids:       -0.0000000109
  Total charge density g-space grids:          -0.0000000109

     7 OT DIIS     0.15E+00    3.9     0.05750019       -37.6880500940  1.69E-03

  Electronic density on regular grids:        -16.0000000093       -0.0000000093
  Core density on regular grids:               16.0000000000        0.0000000000
  Total charge density on r-space grids:       -0.0000000094
  Total charge density g-space grids:          -0.0000000094

     8 OT DIIS     0.15E+00    3.9     0.01370071       -37.7579329171 -6.99E-02

  Electronic density on regular grids:        -16.0000000096       -0.0000000096
  Core density on regular grids:               16.0000000000        0.0000000000
  Total charge density on r-space grids:       -0.0000000096
  Total charge density g-space grids:          -0.0000000096

     9 OT DIIS     0.15E+00    3.9     0.00997540       -37.7638278783 -5.89E-03

  Electronic density on regular grids:        -16.0000000096       -0.0000000096
  Core density on regular grids:               16.0000000000        0.0000000000
  Total charge density on r-space grids:       -0.0000000096
  Total charge density g-space grids:          -0.0000000096

    10 OT DIIS     0.15E+00    3.9     0.00706399       -37.7657627213 -1.93E-03

  Electronic density on regular grids:        -16.0000000097       -0.0000000097
  Core density on regular grids:               16.0000000000        0.0000000000
  Total charge density on r-space grids:       -0.0000000097
  Total charge density g-space grids:          -0.0000000097

    11 OT DIIS     0.15E+00    3.9     0.00361172       -37.7665110387 -7.48E-04

  Electronic density on regular grids:        -16.0000000097       -0.0000000097
  Core density on regular grids:               16.0000000000        0.0000000000
  Total charge density on r-space grids:       -0.0000000097
  Total charge density g-space grids:          -0.0000000097

    12 OT DIIS     0.15E+00    3.9     0.00164699       -37.7669713297 -4.60E-04

  Electronic density on regular grids:        -16.0000000097       -0.0000000097
  Core density on regular grids:               16.0000000000        0.0000000000
  Total charge density on r-space grids:       -0.0000000097
  Total charge density g-space grids:          -0.0000000097

    13 OT DIIS     0.15E+00    3.9     0.00097323       -37.7671307340 -1.59E-04

  Electronic density on regular grids:        -16.0000000097       -0.0000000097
  Core density on regular grids:               16.0000000000        0.0000000000
  Total charge density on r-space grids:       -0.0000000097
  Total charge density g-space grids:          -0.0000000097

    14 OT DIIS     0.15E+00    3.9     0.00048888       -37.7671732866 -4.26E-05

  Electronic density on regular grids:        -16.0000000098       -0.0000000098
  Core density on regular grids:               16.0000000000        0.0000000000
  Total charge density on r-space grids:       -0.0000000098
  Total charge density g-space grids:          -0.0000000098

    15 OT DIIS     0.15E+00    4.0     0.00045303       -37.7671850578 -1.18E-05

  Electronic density on regular grids:        -16.0000000097       -0.0000000097
  Core density on regular grids:               16.0000000000        0.0000000000
  Total charge density on r-space grids:       -0.0000000097
  Total charge density g-space grids:          -0.0000000097

    16 OT DIIS     0.15E+00    4.1     0.00027252       -37.7671901523 -5.09E-06

  Electronic density on regular grids:        -16.0000000097       -0.0000000097
  Core density on regular grids:               16.0000000000        0.0000000000
  Total charge density on r-space grids:       -0.0000000098
  Total charge density g-space grids:          -0.0000000098

    17 OT DIIS     0.15E+00    4.0     0.00013568       -37.7671922745 -2.12E-06

  Electronic density on regular grids:        -16.0000000097       -0.0000000097
  Core density on regular grids:               16.0000000000        0.0000000000
  Total charge density on r-space grids:       -0.0000000097
  Total charge density g-space grids:          -0.0000000097

    18 OT DIIS     0.15E+00    3.9     0.00015171       -37.7671931231 -8.49E-07

  Electronic density on regular grids:        -16.0000000097       -0.0000000097
  Core density on regular grids:               16.0000000000        0.0000000000
  Total charge density on r-space grids:       -0.0000000098
  Total charge density g-space grids:          -0.0000000098

    19 OT DIIS     0.15E+00    3.8     0.00010448       -37.7671933423 -2.19E-07

  Electronic density on regular grids:        -16.0000000097       -0.0000000097
  Core density on regular grids:               16.0000000000        0.0000000000
  Total charge density on r-space grids:       -0.0000000098
  Total charge density g-space grids:          -0.0000000098

    20 OT DIIS     0.15E+00    3.9     0.00005125       -37.7671935210 -1.79E-07

  Electronic density on regular grids:        -16.0000000097       -0.0000000097
  Core density on regular grids:               16.0000000000        0.0000000000
  Total charge density on r-space grids:       -0.0000000097
  Total charge density g-space grids:          -0.0000000097

    21 OT DIIS     0.15E+00    3.9     0.00002682       -37.7671936049 -8.39E-08

  Electronic density on regular grids:        -16.0000000097       -0.0000000097
  Core density on regular grids:               16.0000000000        0.0000000000
  Total charge density on r-space grids:       -0.0000000097
  Total charge density g-space grids:          -0.0000000097

    22 OT DIIS     0.15E+00    3.8     0.00001980       -37.7671936343 -2.95E-08

  Electronic density on regular grids:        -16.0000000097       -0.0000000097
  Core density on regular grids:               16.0000000000        0.0000000000
  Total charge density on r-space grids:       -0.0000000097
  Total charge density g-space grids:          -0.0000000097

    23 OT DIIS     0.15E+00    3.8     0.00001521       -37.7671936507 -1.63E-08

  Electronic density on regular grids:        -16.0000000097       -0.0000000097
  Core density on regular grids:               16.0000000000        0.0000000000
  Total charge density on r-space grids:       -0.0000000097
  Total charge density g-space grids:          -0.0000000097

    24 OT DIIS     0.15E+00    3.8     0.00001232       -37.7671936571 -6.41E-09

  Electronic density on regular grids:        -16.0000000097       -0.0000000097
  Core density on regular grids:               16.0000000000        0.0000000000
  Total charge density on r-space grids:       -0.0000000097
  Total charge density g-space grids:          -0.0000000097

    25 OT DIIS     0.15E+00    3.7     0.00000646       -37.7671936606 -3.52E-09

  Electronic density on regular grids:        -16.0000000097       -0.0000000097
  Core density on regular grids:               16.0000000000        0.0000000000
  Total charge density on r-space grids:       -0.0000000097
  Total charge density g-space grids:          -0.0000000097

    26 OT DIIS     0.15E+00    3.7     0.00000601       -37.7671936625 -1.88E-09

  Electronic density on regular grids:        -16.0000000097       -0.0000000097
  Core density on regular grids:               16.0000000000        0.0000000000
  Total charge density on r-space grids:       -0.0000000097
  Total charge density g-space grids:          -0.0000000097

    27 OT DIIS     0.15E+00    3.7     0.00000651       -37.7671936631 -6.10E-10

  Electronic density on regular grids:        -16.0000000097       -0.0000000097
  Core density on regular grids:               16.0000000000        0.0000000000
  Total charge density on r-space grids:       -0.0000000097
  Total charge density g-space grids:          -0.0000000097

    28 OT DIIS     0.15E+00    3.7     0.00000375       -37.7671936638 -7.00E-10

  Electronic density on regular grids:        -16.0000000097       -0.0000000097
  Core density on regular grids:               16.0000000000        0.0000000000
  Total charge density on r-space grids:       -0.0000000097
  Total charge density g-space grids:          -0.0000000097

    29 OT DIIS     0.15E+00    3.8     0.00000195       -37.7671936642 -3.67E-10

  Electronic density on regular grids:        -16.0000000097       -0.0000000097
  Core density on regular grids:               16.0000000000        0.0000000000
  Total charge density on r-space grids:       -0.0000000097
  Total charge density g-space grids:          -0.0000000097

    30 OT DIIS     0.15E+00    3.8     0.00000142       -37.7671936643 -1.74E-10

  *** SCF run NOT converged ***


  Electronic density on regular grids:        -16.0000000097       -0.0000000097
  Core density on regular grids:               16.0000000000        0.0000000000
  Total charge density on r-space grids:       -0.0000000097
  Total charge density g-space grids:          -0.0000000097

  Overlap energy of the core charge distribution:               0.00000274954716
  Self energy of the core charge distribution:                -96.38742208476296
  Core Hamiltonian energy:                                     27.75460919202241
  Hartree energy:                                              39.53359534282614
  Exchange-correlation energy:                                 -8.66788429774321
  Dispersion energy:                                           -0.00009456621754

  Total energy:                                               -37.76719366432799

  outer SCF iter =    1 RMS gradient =   0.14E-05 energy =        -37.7671936643

  ----------------------------------- OT ---------------------------------------

  Allowing for rotations:  F
  Optimizing orbital energies:  F
  Minimizer      : DIIS                : direct inversion
                                         in the iterative subspace
                            using      : -   7 DIIS vectors
                                         - safer DIIS on
  Preconditioner : FULL_ALL            : diagonalization, state selective
  Precond_solver : DEFAULT
  stepsize       :    0.15000000
  energy_gap     :    0.00100000

  eps_taylor     :   0.10000E-15
  max_taylor     :             4

  mixed_precision    : F

  ----------------------------------- OT ---------------------------------------

  Step     Update method      Time    Convergence         Total energy    Change
  ------------------------------------------------------------------------------

  Electronic density on regular grids:        -16.0000000097       -0.0000000097
  Core density on regular grids:               16.0000000000        0.0000000000
  Total charge density on r-space grids:       -0.0000000097
  Total charge density g-space grids:          -0.0000000097

     1 OT DIIS     0.15E+00    7.5     0.00000108       -37.7671936644 -9.31E-11

  Electronic density on regular grids:        -16.0000000097       -0.0000000097
  Core density on regular grids:               16.0000000000        0.0000000000
  Total charge density on r-space grids:       -0.0000000097
  Total charge density g-space grids:          -0.0000000097

     2 OT DIIS     0.15E+00    3.7     0.00000049       -37.7671936645 -7.14E-11

  *** SCF run converged in     2 steps ***


  Electronic density on regular grids:        -16.0000000097       -0.0000000097
  Core density on regular grids:               16.0000000000        0.0000000000
  Total charge density on r-space grids:       -0.0000000097
  Total charge density g-space grids:          -0.0000000097

  Overlap energy of the core charge distribution:               0.00000274954716
  Self energy of the core charge distribution:                -96.38742208476296
  Core Hamiltonian energy:                                     27.75460690739773
  Hartree energy:                                              39.53359731402746
  Exchange-correlation energy:                                 -8.66788398448434
  Dispersion energy:                                           -0.00009456621754

  Total energy:                                               -37.76719366449249

  outer SCF iter =    2 RMS gradient =   0.49E-06 energy =        -37.7671936645
  outer SCF loop converged in   2 iterations or   32 steps



 MULLIKEN POPULATION ANALYSIS

 # Atom  Element  Kind  Atomic population                Net charge
      1     O        1           6.304126                 -0.304126
      2     O        1           6.304131                 -0.304131
      3     C        2           3.391743                  0.608257
 # Total charge                 16.000000                  0.000000


 MOMENTS
  The electric moments are written to file:
  /usr/local/u/jmlarkin/CP2K/CdSe/vib/./MOMENTS-moments.dat


 LOCALIZE| The spread relative to a set of orbitals is computed
 LOCALIZE| Orbitals to be localized: All the occupied
 LOCALIZE| If fractional occupation, fully occupied MOs are those within occupation tolerance of       0.00000100
 LOCALIZE| Spread defined by the Berry phase operator 
 LOCALIZE| The optimal unitary transformation is generated by the Crazy angle algorithm
 LOCALIZE| maximum angle:       0.05000000
 LOCALIZE| scaling:       1.00000000
 LOCALIZE| use diag:F
  
  Eigenvalues of the occupied subspace spin            1
 ---------------------------------------------
      -1.07539641     -1.03872635     -0.50795708     -0.46709927
      -0.46709771     -0.46672091     -0.33407647     -0.33407322
 Fermi Energy [eV] :   -9.090595

 LOCALIZATION| Computing localization properties for OCCUPIED ORBITALS. Spin:  1
          Spread Functional     sum_in -w_i ln(|z_in|^2)    sum_in w_i(1-|z_in|^2)
    Initial Spread (Berry) :                  48.8799511077       42.3573655776
 CRAZY|   Iter            value        gradient   Max. eval       limit
 CRAZY|      1 664.162799855305      0.4014E+02  0.2312E+00  0.5000E-01
 CRAZY|      2 658.474389899365      0.4083E+02  0.1760E+00  0.5000E-01
 CRAZY|      3 652.584807417125      0.3853E+02  0.1528E+00  0.5000E-01
 CRAZY|      4 646.496526870010      0.3347E+02  0.1523E+00  0.5000E-01
 CRAZY|      5 640.221749815233      0.2939E+02  0.1521E+00  0.5000E-01
 CRAZY|      6 634.652888788577      0.3361E+02  0.1517E+00  0.5000E-01
 CRAZY|      7 630.454990293271      0.3544E+02  0.1514E+00  0.5000E-01
 CRAZY|      8 627.111566437770      0.3865E+02  0.1514E+00  0.5000E-01
 CRAZY|      9 624.042386145989      0.3903E+02  0.1531E+00  0.5000E-01
 CRAZY|     10 621.634587497479      0.3503E+02  0.1488E+00  0.5000E-01
 CRAZY|     11 619.533584944917      0.3308E+02  0.1523E+00  0.5000E-01
 CRAZY|     12 617.866168058817      0.2823E+02  0.7943E-01  0.5000E-01
 CRAZY|     13 616.440213763910      0.2325E+02  0.1003E+00  0.5000E-01
 CRAZY|     14 615.319849419122      0.1724E+02  0.8563E-01  0.5000E-01
 CRAZY|     15 614.504374402030      0.1091E+02  0.9263E-01  0.5000E-01
 CRAZY|     16 614.017497604954      0.4268E+01  0.8876E-01  0.5000E-01
 CRAZY|     17 613.859996957576      0.2461E+01  0.6458E-01  0.5000E-01
 CRAZY|     18 613.819077416376      0.1014E+01  0.3027E-01  0.5000E-01
 CRAZY|     19 613.808531227499      0.6465E+00  0.1763E-01  0.5000E-01
 CRAZY|     20 613.805770949273      0.2395E+00  0.7213E-02  0.5000E-01
 CRAZY|     21 613.805037219734      0.1777E+00  0.5006E-02  0.5000E-01
 CRAZY|     22 613.804832256819      0.6063E-01  0.2751E-02  0.5000E-01
 CRAZY|     23 613.804769914868      0.5227E-01  0.2150E-02  0.5000E-01
 CRAZY|     24 613.804747846378      0.3707E-01  0.1680E-02  0.5000E-01
 CRAZY|     25 613.804738493978      0.3120E-01  0.1314E-02  0.5000E-01
 CRAZY|     26 613.804733785455      0.2250E-01  0.1029E-02  0.5000E-01
 CRAZY|     27 613.804731138932      0.1969E-01  0.8042E-03  0.5000E-01
 CRAZY|     28 613.804729540424      0.1348E-01  0.6305E-03  0.5000E-01
 CRAZY|     29 613.804728534702      0.1257E-01  0.4927E-03  0.5000E-01
 CRAZY|     30 613.804727876770      0.7902E-02  0.3870E-03  0.5000E-01
 CRAZY|     31 613.804727429524      0.8179E-02  0.3020E-03  0.5000E-01
 CRAZY|     32 613.804727110273      0.4990E-02  0.2378E-03  0.5000E-01
 CRAZY|     33 613.804726869594      0.5468E-02  0.1852E-03  0.5000E-01
 CRAZY|     34 613.804726677041      0.3463E-02  0.1463E-03  0.5000E-01
 CRAZY|     35 613.804726514097      0.3795E-02  0.1136E-03  0.5000E-01
 CRAZY|     36 613.804726369332      0.2534E-02  0.9019E-04  0.5000E-01
 CRAZY|     37 613.804726235763      0.2762E-02  0.7235E-04  0.5000E-01
 CRAZY|     38 613.804726109075      0.1967E-02  0.5994E-04  0.5000E-01
 CRAZY|     39 613.804725986624      0.2126E-02  0.5780E-04  0.5000E-01
 CRAZY|     40 613.804725866781      0.1620E-02  0.5037E-04  0.5000E-01
 CRAZY|     41 613.804725748550      0.1733E-02  0.4884E-04  0.5000E-01
 CRAZY|     42 613.804725631309      0.1407E-02  0.4449E-04  0.5000E-01
 CRAZY|     43 613.804725514683      0.1491E-02  0.4332E-04  0.5000E-01
 CRAZY|     44 613.804725398434      0.1277E-02  0.4088E-04  0.5000E-01
 CRAZY|     45 613.804725282418      0.1341E-02  0.3992E-04  0.5000E-01
 CRAZY|     46 613.804725166550      0.1197E-02  0.3866E-04  0.5000E-01
 CRAZY|     47 613.804725050775      0.1249E-02  0.3783E-04  0.5000E-01
 CRAZY|     48 613.804724935059      0.1148E-02  0.3730E-04  0.5000E-01
 CRAZY|     49 613.804724819383      0.1193E-02  0.3690E-04  0.5000E-01
 CRAZY|     50 613.804724703730      0.1130E-02  0.3687E-04  0.5000E-01
 CRAZY|     51 613.804724588094      0.1158E-02  0.3681E-04  0.5000E-01
 CRAZY|     52 613.804724472476      0.1121E-02  0.3680E-04  0.5000E-01
 CRAZY|     53 613.804724356866      0.1136E-02  0.3675E-04  0.5000E-01
 CRAZY|     54 613.804724241265      0.1116E-02  0.3676E-04  0.5000E-01
 CRAZY|     55 613.804724125668      0.1123E-02  0.3672E-04  0.5000E-01
 CRAZY|     56 613.804724010079      0.1112E-02  0.3674E-04  0.5000E-01
 CRAZY|     57 613.804723894496      0.1115E-02  0.3669E-04  0.5000E-01
 CRAZY|     58 613.804723778918      0.1110E-02  0.3673E-04  0.5000E-01
 CRAZY|     59 613.804723663342      0.1110E-02  0.3670E-04  0.5000E-01
 CRAZY|     60 613.804723547776      0.1109E-02  0.3672E-04  0.5000E-01
 CRAZY|     61 613.804723432216      0.1106E-02  0.3670E-04  0.5000E-01
 CRAZY|     62 613.804723316661      0.1108E-02  0.3671E-04  0.5000E-01
 CRAZY|     63 613.804723201109      0.1106E-02  0.3670E-04  0.5000E-01
 CRAZY|     64 613.804723085564      0.1108E-02  0.3670E-04  0.5000E-01
 CRAZY|     65 613.804722970027      0.1106E-02  0.3670E-04  0.5000E-01
 CRAZY|     66 613.804722854493      0.1107E-02  0.3670E-04  0.5000E-01
 CRAZY|     67 613.804722738963      0.1107E-02  0.3669E-04  0.5000E-01
 CRAZY|     68 613.804722623438      0.1107E-02  0.3670E-04  0.5000E-01
 CRAZY|     69 613.804722507918      0.1107E-02  0.3669E-04  0.5000E-01
 CRAZY|     70 613.804722392405      0.1107E-02  0.3669E-04  0.5000E-01
 CRAZY|     71 613.804722276899      0.1107E-02  0.3669E-04  0.5000E-01
 CRAZY|     72 613.804722161397      0.1107E-02  0.3669E-04  0.5000E-01
 CRAZY|     73 613.804722045901      0.1106E-02  0.3669E-04  0.5000E-01
 CRAZY|     74 613.804721930411      0.1107E-02  0.3669E-04  0.5000E-01
 CRAZY|     75 613.804721814925      0.1106E-02  0.3668E-04  0.5000E-01
 CRAZY|     76 613.804721699446      0.1106E-02  0.3668E-04  0.5000E-01
 CRAZY|     77 613.804721583970      0.1106E-02  0.3668E-04  0.5000E-01
 CRAZY|     78 613.804721468499      0.1106E-02  0.3668E-04  0.5000E-01
 CRAZY|     79 613.804721353033      0.1106E-02  0.3668E-04  0.5000E-01
 CRAZY|     80 613.804721237573      0.1106E-02  0.3668E-04  0.5000E-01
 CRAZY|     81 613.804721122118      0.1106E-02  0.3668E-04  0.5000E-01
 CRAZY|     82 613.804721006668      0.1106E-02  0.3667E-04  0.5000E-01
 CRAZY|     83 613.804720891224      0.1106E-02  0.3667E-04  0.5000E-01
 CRAZY|     84 613.804720775785      0.1106E-02  0.3667E-04  0.5000E-01
 CRAZY|     85 613.804720660352      0.1106E-02  0.3667E-04  0.5000E-01
 CRAZY|     86 613.804720544926      0.1106E-02  0.3667E-04  0.5000E-01
 CRAZY|     87 613.804720429504      0.1106E-02  0.3667E-04  0.5000E-01
 CRAZY|     88 613.804720314089      0.1106E-02  0.3666E-04  0.5000E-01
 CRAZY|     89 613.804720198675      0.1106E-02  0.3666E-04  0.5000E-01
 CRAZY|     90 613.804720083269      0.1106E-02  0.3666E-04  0.5000E-01
 CRAZY|     91 613.804719967872      0.1106E-02  0.3666E-04  0.5000E-01
 CRAZY|     92 613.804719852479      0.1106E-02  0.3666E-04  0.5000E-01
 CRAZY|     93 613.804719737088      0.1106E-02  0.3666E-04  0.5000E-01
 CRAZY|     94 613.804719621706      0.1106E-02  0.3666E-04  0.5000E-01
 CRAZY|     95 613.804719506328      0.1106E-02  0.3665E-04  0.5000E-01
 CRAZY|     96 613.804719390956      0.1105E-02  0.3665E-04  0.5000E-01
 CRAZY|     97 613.804719275588      0.1105E-02  0.3665E-04  0.5000E-01
 CRAZY|     98 613.804719160228      0.1105E-02  0.3665E-04  0.5000E-01
 CRAZY|     99 613.804719044871      0.1105E-02  0.3665E-04  0.5000E-01
 CRAZY|    100 613.804718929519      0.1105E-02  0.3665E-04  0.5000E-01
 CRAZY|    101 613.804718814176      0.1105E-02  0.3664E-04  0.5000E-01
 CRAZY|    102 613.804718698837      0.1105E-02  0.3664E-04  0.5000E-01
 CRAZY|    103 613.804718583504      0.1105E-02  0.3664E-04  0.5000E-01
 CRAZY|    104 613.804718468174      0.1105E-02  0.3664E-04  0.5000E-01
 CRAZY|    105 613.804718352853      0.1105E-02  0.3664E-04  0.5000E-01
 CRAZY|    106 613.804718237537      0.1105E-02  0.3664E-04  0.5000E-01
 CRAZY|    107 613.804718122224      0.1105E-02  0.3664E-04  0.5000E-01
 CRAZY|    108 613.804718006918      0.1105E-02  0.3663E-04  0.5000E-01
 CRAZY|    109 613.804717891617      0.1105E-02  0.3663E-04  0.5000E-01
 CRAZY|    110 613.804717776321      0.1105E-02  0.3663E-04  0.5000E-01
 CRAZY|    111 613.804717661029      0.1105E-02  0.3663E-04  0.5000E-01
 CRAZY|    112 613.804717545742      0.1105E-02  0.3663E-04  0.5000E-01
 CRAZY|    113 613.804717430462      0.1105E-02  0.3663E-04  0.5000E-01
 CRAZY|    114 613.804717315186      0.1105E-02  0.3663E-04  0.5000E-01
 CRAZY|    115 613.804717199916      0.1105E-02  0.3662E-04  0.5000E-01
 CRAZY|    116 613.804717084650      0.1105E-02  0.3662E-04  0.5000E-01
 CRAZY|    117 613.804716969392      0.1104E-02  0.3662E-04  0.5000E-01
 CRAZY|    118 613.804716854138      0.1104E-02  0.3662E-04  0.5000E-01
 CRAZY|    119 613.804716738891      0.1104E-02  0.3662E-04  0.5000E-01
 CRAZY|    120 613.804716623649      0.1104E-02  0.3662E-04  0.5000E-01
 CRAZY|    121 613.804716508413      0.1104E-02  0.3661E-04  0.5000E-01
 CRAZY|    122 613.804716393182      0.1104E-02  0.3661E-04  0.5000E-01
 CRAZY|    123 613.804716277956      0.1104E-02  0.3661E-04  0.5000E-01
 CRAZY|    124 613.804716162734      0.1104E-02  0.3661E-04  0.5000E-01
 CRAZY|    125 613.804716047519      0.1104E-02  0.3661E-04  0.5000E-01
 CRAZY|    126 613.804715932310      0.1104E-02  0.3661E-04  0.5000E-01
 CRAZY|    127 613.804715817108      0.1104E-02  0.3661E-04  0.5000E-01
 CRAZY|    128 613.804715701910      0.1104E-02  0.3660E-04  0.5000E-01
 CRAZY|    129 613.804715586718      0.1104E-02  0.3660E-04  0.5000E-01
 CRAZY|    130 613.804715471531      0.1104E-02  0.3660E-04  0.5000E-01
 CRAZY|    131 613.804715356350      0.1104E-02  0.3660E-04  0.5000E-01
 CRAZY|    132 613.804715241177      0.1104E-02  0.3660E-04  0.5000E-01
 CRAZY|    133 613.804715126009      0.1104E-02  0.3660E-04  0.5000E-01
 CRAZY|    134 613.804715010845      0.1104E-02  0.3659E-04  0.5000E-01
 CRAZY|    135 613.804714895686      0.1104E-02  0.3659E-04  0.5000E-01
 CRAZY|    136 613.804714780533      0.1104E-02  0.3659E-04  0.5000E-01
 CRAZY|    137 613.804714665385      0.1103E-02  0.3659E-04  0.5000E-01
 CRAZY|    138 613.804714550242      0.1103E-02  0.3659E-04  0.5000E-01
[...]
 CRAZY|   1857 613.802129715891      0.2039E-03  0.6715E-05  0.5000E-01
 CRAZY|   1858 613.802129713897      0.2039E-03  0.6715E-05  0.5000E-01
 CRAZY|   1859 613.802129711905      0.2039E-03  0.6715E-05  0.5000E-01
 CRAZY|   1860 613.802129709908      0.2039E-03  0.6715E-05  0.5000E-01
 CRAZY|   1861 613.802129707913      0.2039E-03  0.6716E-05  0.5000E-01
 CRAZY|   1862 613.802129705918      0.2039E-03  0.6716E-05  0.5000E-01
 CRAZY|   1863 613.802129703922      0.2039E-03  0.6716E-05  0.5000E-01
 CRAZY|   1864 613.802129701925      0.2039E-03  0.6716E-05  0.5000E-01
 CRAZY|   1865 613.802129699931      0.2039E-03  0.6716E-05  0.5000E-01
 CRAZY|   1866 613.802129697935      0.2039E-03  0.6716E-05  0.5000E-01
 CRAZY|   1867 613.802129695939      0.2039E-03  0.6716E-05  0.5000E-01
 CRAZY|   1868 613.802129693943      0.2039E-03  0.6716E-05  0.5000E-01
 CRAZY|   1869 613.802129691945      0.2039E-03  0.6717E-05  0.5000E-01
 CRAZY|   1870 613.802129689949      0.2040E-03  0.6717E-05  0.5000E-01
 CRAZY|   1871 613.802129687951      0.2040E-03  0.6717E-05  0.5000E-01
 CRAZY|   1872 613.802129685956      0.2040E-03  0.6717E-05  0.5000E-01
 CRAZY|   1873 613.802129683960      0.2040E-03  0.6717E-05  0.5000E-01
 CRAZY|   1874 613.802129681965      0.2040E-03  0.6717E-05  0.5000E-01
 CRAZY|   1875 613.802129679967      0.2040E-03  0.6717E-05  0.5000E-01
 CRAZY|   1876 613.802129677971      0.2040E-03  0.6718E-05  0.5000E-01
 CRAZY|   1877 613.802129675975      0.2040E-03  0.6718E-05  0.5000E-01
 CRAZY|   1878 613.802129673979      0.2040E-03  0.6718E-05  0.5000E-01
 CRAZY|   1879 613.802129671984      0.2040E-03  0.6718E-05  0.5000E-01
 CRAZY|   1880 613.802129669987      0.2040E-03  0.6718E-05  0.5000E-01
 CRAZY|   1881 613.802129667991      0.2040E-03  0.6718E-05  0.5000E-01
 CRAZY|   1882 613.802129665994      0.2040E-03  0.6718E-05  0.5000E-01
 CRAZY|   1883 613.802129663996      0.2040E-03  0.6719E-05  0.5000E-01
 CRAZY|   1884 613.802129662000      0.2040E-03  0.6719E-05  0.5000E-01
 CRAZY|   1885 613.802129660003      0.2040E-03  0.6719E-05  0.5000E-01
 CRAZY|   1886 613.802129658007      0.2040E-03  0.6719E-05  0.5000E-01
 CRAZY|   1887 613.802129656010      0.2040E-03  0.6719E-05  0.5000E-01
 CRAZY|   1888 613.802129654014      0.2040E-03  0.6719E-05  0.5000E-01
 CRAZY|   1889 613.802129652015      0.2040E-03  0.6719E-05  0.5000E-01
 CRAZY|   1890 613.802129650015      0.2040E-03  0.6720E-05  0.5000E-01
 CRAZY|   1891 613.802129648018      0.2040E-03  0.6720E-05  0.5000E-01
 CRAZY|   1892 613.802129646019      0.2040E-03  0.6720E-05  0.5000E-01
 CRAZY|   1893 613.802129644022      0.2041E-03  0.6720E-05  0.5000E-01
 CRAZY|   1894 613.802129642022      0.2041E-03  0.6720E-05  0.5000E-01
 CRAZY|   1895 613.802129640025      0.2041E-03  0.6720E-05  0.5000E-01
 CRAZY|   1896 613.802129638026      0.2041E-03  0.6720E-05  0.5000E-01
 CRAZY|   1897 613.802129636028      0.2041E-03  0.6720E-05  0.5000E-01
 CRAZY|   1898 613.802129634027      0.2041E-03  0.6721E-05  0.5000E-01
 CRAZY|   1899 613.802129632030      0.2041E-03  0.6721E-05  0.5000E-01
 CRAZY|   1900 613.802129630030      0.2041E-03  0.6721E-05  0.5000E-01
 CRAZY|   1901 613.802129628033      0.2041E-03  0.6721E-05  0.5000E-01
 CRAZY|   1902 613.802129626034      0.2041E-03  0.6721E-05  0.5000E-01
 CRAZY|   1903 613.802129624035      0.2041E-03  0.6721E-05  0.5000E-01
 CRAZY|   1904 613.802129622038      0.2041E-03  0.6721E-05  0.5000E-01
 CRAZY|   1905 613.802129620039      0.2041E-03  0.6722E-05  0.5000E-01
 CRAZY|   1906 613.802129618041      0.2041E-03  0.6722E-05  0.5000E-01
 CRAZY|   1907 613.802129616043      0.2041E-03  0.6722E-05  0.5000E-01
 CRAZY|   1908 613.802129614044      0.2041E-03  0.6722E-05  0.5000E-01
 CRAZY|   1909 613.802129612044      0.2041E-03  0.6722E-05  0.5000E-01
 CRAZY|   1910 613.802129610045      0.2041E-03  0.6722E-05  0.5000E-01
 CRAZY|   1911 613.802129608044      0.2041E-03  0.6722E-05  0.5000E-01
 CRAZY|   1912 613.802129606043      0.2041E-03  0.6723E-05  0.5000E-01
 CRAZY|   1913 613.802129604043      0.2041E-03  0.6723E-05  0.5000E-01
 CRAZY|   1914 613.802129602044      0.2041E-03  0.6723E-05  0.5000E-01
 CRAZY|   1915 613.802129600042      0.2041E-03  0.6723E-05  0.5000E-01
 CRAZY|   1916 613.802129598042      0.2041E-03  0.6723E-05  0.5000E-01
 CRAZY|   1917 613.802129596042      0.2042E-03  0.6723E-05  0.5000E-01
 CRAZY|   1918 613.802129594041      0.2042E-03  0.6723E-05  0.5000E-01
 CRAZY|   1919 613.802129592040      0.2042E-03  0.6723E-05  0.5000E-01
 CRAZY|   1920 613.802129590039      0.2042E-03  0.6724E-05  0.5000E-01
 CRAZY|   1921 613.802129588039      0.2042E-03  0.6724E-05  0.5000E-01
 CRAZY|   1922 613.802129586037      0.2042E-03  0.6724E-05  0.5000E-01
 CRAZY|   1923 613.802129584037      0.2042E-03  0.6724E-05  0.5000E-01
 CRAZY|   1924 613.802129582037      0.2042E-03  0.6724E-05  0.5000E-01
 CRAZY|   1925 613.802129580036      0.2042E-03  0.6724E-05  0.5000E-01
 CRAZY|   1926 613.802129578035      0.2042E-03  0.6724E-05  0.5000E-01
 CRAZY|   1927 613.802129576035      0.2042E-03  0.6725E-05  0.5000E-01
 CRAZY|   1928 613.802129574033      0.2042E-03  0.6725E-05  0.5000E-01
 CRAZY|   1929 613.802129572030      0.2042E-03  0.6725E-05  0.5000E-01
 CRAZY|   1930 613.802129570027      0.2042E-03  0.6725E-05  0.5000E-01
 CRAZY|   1931 613.802129568026      0.2042E-03  0.6725E-05  0.5000E-01
 CRAZY|   1932 613.802129566023      0.2042E-03  0.6725E-05  0.5000E-01
 CRAZY|   1933 613.802129564021      0.2042E-03  0.6725E-05  0.5000E-01
 CRAZY|   1934 613.802129562019      0.2042E-03  0.6726E-05  0.5000E-01
 CRAZY|   1935 613.802129560019      0.2042E-03  0.6726E-05  0.5000E-01
 CRAZY|   1936 613.802129558016      0.2042E-03  0.6726E-05  0.5000E-01
 CRAZY|   1937 613.802129556015      0.2042E-03  0.6726E-05  0.5000E-01
 CRAZY|   1938 613.802129554013      0.2042E-03  0.6726E-05  0.5000E-01
 CRAZY|   1939 613.802129552011      0.2042E-03  0.6726E-05  0.5000E-01
 CRAZY|   1940 613.802129550011      0.2043E-03  0.6726E-05  0.5000E-01
 CRAZY|   1941 613.802129548008      0.2043E-03  0.6727E-05  0.5000E-01
 CRAZY|   1942 613.802129546006      0.2043E-03  0.6727E-05  0.5000E-01
 CRAZY|   1943 613.802129544004      0.2043E-03  0.6727E-05  0.5000E-01
 CRAZY|   1944 613.802129542002      0.2043E-03  0.6727E-05  0.5000E-01
 CRAZY|   1945 613.802129539999      0.2043E-03  0.6727E-05  0.5000E-01
 CRAZY|   1946 613.802129537996      0.2043E-03  0.6727E-05  0.5000E-01
 CRAZY|   1947 613.802129535992      0.2043E-03  0.6727E-05  0.5000E-01
 CRAZY|   1948 613.802129533990      0.2043E-03  0.6727E-05  0.5000E-01
 CRAZY|   1949 613.802129531985      0.2043E-03  0.6728E-05  0.5000E-01
 CRAZY|   1950 613.802129529983      0.2043E-03  0.6728E-05  0.5000E-01
 CRAZY|   1951 613.802129527978      0.2043E-03  0.6728E-05  0.5000E-01
 CRAZY|   1952 613.802129525975      0.2043E-03  0.6728E-05  0.5000E-01
 CRAZY|   1953 613.802129523970      0.2043E-03  0.6728E-05  0.5000E-01
 CRAZY|   1954 613.802129521967      0.2043E-03  0.6728E-05  0.5000E-01
 CRAZY|   1955 613.802129519962      0.2043E-03  0.6728E-05  0.5000E-01
 CRAZY|   1956 613.802129517957      0.2043E-03  0.6729E-05  0.5000E-01
 CRAZY|   1957 613.802129515954      0.2043E-03  0.6729E-05  0.5000E-01
 CRAZY|   1958 613.802129513949      0.2043E-03  0.6729E-05  0.5000E-01
 CRAZY|   1959 613.802129511946      0.2043E-03  0.6729E-05  0.5000E-01
 CRAZY|   1960 613.802129509943      0.2043E-03  0.6729E-05  0.5000E-01
 CRAZY|   1961 613.802129507939      0.2043E-03  0.6729E-05  0.5000E-01
 CRAZY|   1962 613.802129505934      0.2043E-03  0.6729E-05  0.5000E-01
 CRAZY|   1963 613.802129503929      0.2043E-03  0.6730E-05  0.5000E-01
 CRAZY|   1964 613.802129501923      0.2044E-03  0.6730E-05  0.5000E-01
 CRAZY|   1965 613.802129499918      0.2044E-03  0.6730E-05  0.5000E-01
 CRAZY|   1966 613.802129497912      0.2044E-03  0.6730E-05  0.5000E-01
 CRAZY|   1967 613.802129495907      0.2044E-03  0.6730E-05  0.5000E-01
 CRAZY|   1968 613.802129493902      0.2044E-03  0.6730E-05  0.5000E-01
 CRAZY|   1969 613.802129491896      0.2044E-03  0.6730E-05  0.5000E-01
 CRAZY|   1970 613.802129489891      0.2044E-03  0.6730E-05  0.5000E-01
 CRAZY|   1971 613.802129487886      0.2044E-03  0.6731E-05  0.5000E-01
 CRAZY|   1972 613.802129485881      0.2044E-03  0.6731E-05  0.5000E-01
 CRAZY|   1973 613.802129483875      0.2044E-03  0.6731E-05  0.5000E-01
 CRAZY|   1974 613.802129481870      0.2044E-03  0.6731E-05  0.5000E-01
 CRAZY|   1975 613.802129479864      0.2044E-03  0.6731E-05  0.5000E-01
 CRAZY|   1976 613.802129477858      0.2044E-03  0.6731E-05  0.5000E-01
 CRAZY|   1977 613.802129475852      0.2044E-03  0.6731E-05  0.5000E-01
 CRAZY|   1978 613.802129473844      0.2044E-03  0.6732E-05  0.5000E-01
 CRAZY|   1979 613.802129471837      0.2044E-03  0.6732E-05  0.5000E-01
 CRAZY|   1980 613.802129469831      0.2044E-03  0.6732E-05  0.5000E-01
 CRAZY|   1981 613.802129467824      0.2044E-03  0.6732E-05  0.5000E-01
 CRAZY|   1982 613.802129465819      0.2044E-03  0.6732E-05  0.5000E-01
 CRAZY|   1983 613.802129463813      0.2044E-03  0.6732E-05  0.5000E-01
 CRAZY|   1984 613.802129461805      0.2044E-03  0.6732E-05  0.5000E-01
 CRAZY|   1985 613.802129459798      0.2044E-03  0.6733E-05  0.5000E-01
 CRAZY|   1986 613.802129457790      0.2044E-03  0.6733E-05  0.5000E-01
 CRAZY|   1987 613.802129455785      0.2044E-03  0.6733E-05  0.5000E-01
 CRAZY|   1988 613.802129453778      0.2045E-03  0.6733E-05  0.5000E-01
 CRAZY|   1989 613.802129451773      0.2045E-03  0.6733E-05  0.5000E-01
 CRAZY|   1990 613.802129449765      0.2045E-03  0.6733E-05  0.5000E-01
 CRAZY|   1991 613.802129447756      0.2045E-03  0.6733E-05  0.5000E-01
 CRAZY|   1992 613.802129445749      0.2045E-03  0.6733E-05  0.5000E-01
 CRAZY|   1993 613.802129443740      0.2045E-03  0.6734E-05  0.5000E-01
 CRAZY|   1994 613.802129441733      0.2045E-03  0.6734E-05  0.5000E-01
 CRAZY|   1995 613.802129439726      0.2045E-03  0.6734E-05  0.5000E-01
 CRAZY|   1996 613.802129437719      0.2045E-03  0.6734E-05  0.5000E-01
 CRAZY|   1997 613.802129435711      0.2045E-03  0.6734E-05  0.5000E-01
 CRAZY|   1998 613.802129433703      0.2045E-03  0.6734E-05  0.5000E-01
 CRAZY|   1999 613.802129431694      0.2045E-03  0.6734E-05  0.5000E-01
 CRAZY|   2000 613.802129429686      0.2045E-03  0.6735E-05  0.5000E-01
 Crazy Wannier localization not converged after   2000 iterations, switching to jacobi rotations
         Localization by iterative Jacobi rotation
                      Iteration           Tolerance   Time 
                            100          0.4018E-03   0.000
                            200          0.4033E-03   0.000
                            300          0.4048E-03   0.000
                            400          0.4062E-03   0.000
                            500          0.4075E-03   0.000
                            600          0.4089E-03   0.000
                            700          0.4101E-03   0.000
                            800          0.4113E-03   0.000
                            900          0.4125E-03   0.000
                           1000          0.4135E-03   0.000
                           1100          0.4146E-03   0.000
                           1200          0.4156E-03   0.000
                           1300          0.4165E-03   0.000
                           1400          0.4173E-03   0.000
                           1500          0.4181E-03   0.000
                           1600          0.4189E-03   0.000
                           1700          0.4195E-03   0.000
                           1800          0.4202E-03   0.000
                           1900          0.4207E-03   0.000
                           2000          0.4212E-03   0.000
               Localization  for spin   1 converged in   2000 iterations
          Spread Functional     sum_in -w_i ln(|z_in|^2)    sum_in w_i(1-|z_in|^2)
    Total Spread (Berry) :                  16.0353635668       15.5477893496

  Electronic density on regular grids:        -16.0000000093       -0.0000000093
  Core density on regular grids:               16.0000000000        0.0000000000
  Total charge density on r-space grids:       -0.0000000093
  Total charge density g-space grids:          -0.0000000093


 ENERGY| Total FORCE_EVAL ( QS ) energy (a.u.):              -37.767200349152745


 -------------------------------------------------------------------------------
 ----                             MULTIGRID INFO                            ----
 -------------------------------------------------------------------------------
 count for grid        1:          24216          cutoff [a.u.]          175.00
 count for grid        2:          15952          cutoff [a.u.]           58.33
 count for grid        3:          11592          cutoff [a.u.]           19.44
 count for grid        4:           4728          cutoff [a.u.]            6.48
 count for grid        5:            524          cutoff [a.u.]            2.16
 total gridlevel count  :          57012

 -------------------------------------------------------------------------------
 -                                                                             -
 -                         MESSAGE PASSING PERFORMANCE                         -
 -                                                                             -
 -------------------------------------------------------------------------------

 ROUTINE             CALLS  TOT TIME [s]  AVE VOLUME [Bytes]  PERFORMANCE [MB/s]
 MP_Group                6         0.000
 MP_Bcast              338         0.001                 10.                4.83
 MP_Allreduce        24471        21.659                 27.                0.03
 MP_Sync                 5         0.000
 -------------------------------------------------------------------------------


 -------------------------------------------------------------------------------
 -                                                                             -
 -                           R E F E R E N C E S                               -
 -                                                                             -
 -------------------------------------------------------------------------------
 
 CP2K version 2.2.107 (Development Version), the CP2K developers group (2011).
 CP2K is freely available from http://cp2k.berlios.de/ .

 Grimme, S. 
 JOURNAL OF COMPUTATIONAL CHEMISTRY, 27 (15), 1787-1799 (2006). 
 Semiempirical GGA-type density functional constructed with a long-range
 dispersion correction.
 http://dx.doi.org/10.1002/jcc.20495


 Krack, M. 
 THEORETICAL CHEMISTRY ACCOUNTS, 114 (1-3), 145-152 (2005). 
 Pseudopotentials for H to Kr optimized for gradient-corrected
 exchange-correlation functionals.
 http://dx.doi.org/10.1007/s00214-005-0655-y


 VandeVondele, J; Krack, M; Mohamed, F; Parrinello, M; Chassaing, T;
 Hutter, J. COMPUTER PHYSICS COMMUNICATIONS, 167 (2), 103-128 (2005). 
 QUICKSTEP: Fast and accurate density functional calculations using a
 mixed Gaussian and plane waves approach.
 http://dx.doi.org/10.1016/j.cpc.2004.12.014


 Frigo, M; Johnson, SG. 
 PROCEEDINGS OF THE IEEE, 93 (2), 216-231 (2005). 
 The design and implementation of FFTW3.
 http://dx.doi.org/10.1109/JPROC.2004.840301


 VandeVondele, J; Hutter, J. 
 JOURNAL OF CHEMICAL PHYSICS, 118 (10), 4365-4369 (2003). 
 An efficient orbital transformation method for electronic structure
 calculations.
 http://dx.doi.org/10.1063/1.1543154


 Martyna, GJ; Tuckerman, ME. 
 JOURNAL OF CHEMICAL PHYSICS, 110 (6), 2810-2821 (1999). 
 A reciprocal space based method for treating long range interactions in
 ab initio and force-field-based calculations in clusters.
 http://dx.doi.org/10.1063/1.477923


 Hartwigsen, C; Goedecker, S; Hutter, J. 
 PHYSICAL REVIEW B, 58 (7), 3641-3662 (1998). 
 Relativistic separable dual-space Gaussian pseudopotentials from H to Rn.
 http://dx.doi.org/10.1103/PhysRevB.58.3641


 Lippert, G; Hutter, J; Parrinello, M. 
 MOLECULAR PHYSICS, 92 (3), 477-487 (1997). 
 A hybrid Gaussian and plane wave density functional scheme.
 http://dx.doi.org/10.1080/002689797170220


 Perdew, JP; Burke, K; Ernzerhof, M. 
 PHYSICAL REVIEW LETTERS, 77 (18), 3865-3868 (1996). 
 Generalized gradient approximation made simple.
 http://dx.doi.org/10.1103/PhysRevLett.77.3865


 Goedecker, S; Teter, M; Hutter, J. 
 PHYSICAL REVIEW B, 54 (3), 1703-1710 (1996). 
 Separable dual-space Gaussian pseudopotentials.
 http://dx.doi.org/10.1103/PhysRevB.54.1703


 -------------------------------------------------------------------------------
 -                                                                             -
 -                                T I M I N G                                  -
 -                                                                             -
 -------------------------------------------------------------------------------
 SUBROUTINE                       CALLS  ASD         SELF TIME        TOTAL TIME
                                              AVERAGE  MAXIMUM  AVERAGE  MAXIMUM
 CP2K                                 1  1.0    0.186    0.186  241.112  241.112
 rep_env_calc_e_f                     4  2.0    0.017    0.017  238.002  238.002
 qs_forces                            4  3.0    0.001    0.001  216.373  216.373
 qs_energies_scf                      4  4.0    0.087    0.087  203.835  203.835
 scf_env_do_scf                       4  5.0    0.007    0.007  193.843  193.843
 qs_ks_build_kohn_sham_matrix        53  7.8    1.058    1.058  176.863  176.863
 scf_env_do_scf_inner_loop           49  6.0    0.033    0.033  174.481  174.481
 qs_ks_update_qs_env                 54  7.0    0.000    0.000  164.361  164.361
 fft_wrap_pw1pw2                   1012 10.6    0.018    0.018  140.207  140.207
 qs_vxc_create                       53  8.8    0.035    0.035  138.319  138.319
 xc_vxc_pw_create                    53  9.8    2.328    2.328  138.284  138.284
 fft_wrap_pw1pw2_180                587 11.7    7.648    7.648  134.382  134.382
 fft3d_s                           1014 12.6   99.996   99.996  100.000  100.000
 xc_rho_set_and_dset_create          53 10.8    3.132    3.132   80.863   80.863
 xc_functional_eval                  53 11.8    0.027    0.027   34.225   34.225
 pbe_lda_eval                        53 12.8   34.198   34.198   34.198   34.198
 qs_rho_update_rho                   53  7.1    0.001    0.001   31.290   31.290
 calculate_rho_elec                  53  8.1    1.352    1.352   31.289   31.289
 density_rs2pw                       53  9.1    0.053    0.053   29.092   29.092
 rep_env_sync                         7  2.6   21.630   21.630   21.630   21.630
 init_scf_loop                        5  6.0    0.053    0.053   19.354   19.354
 integrate_v_rspace                  53  8.8    1.079    1.079   17.562   17.562
 potential_pw2rs                     53  9.8    0.175    0.175   16.474   16.474
 pw_gather_s                        482 12.3   16.316   16.316   16.316   16.316
 pw_scatter_s                       530 12.8   15.797   15.797   15.797   15.797
 qs_ks_update_qs_env_forces           4  4.0    0.000    0.000   12.505   12.505
 pw_derive                          318 11.3    8.601    8.601    8.601    8.601
 pw_copy                            636 10.8    6.544    6.544    6.544    6.544
 pw_poisson_solve                    53  8.8    2.879    2.879    5.817    5.817
 -------------------------------------------------------------------------------

  **** **** ******  **  PROGRAM ENDED AT                 2011-08-14 10:30:32.087
 ***** ** ***  *** **   PROGRAM RAN ON                                  r11i3n15
 **    ****   ******    PROGRAM RAN BY                                          
 ***** **    ** ** **   PROGRAM PROCESS ID                                   711
  **** **  *******  **  PROGRAM STOPPED IN   /usr/local/u/jmlarkin/CP2K/CdSe/vib
