
  **** **** ******  **  PROGRAM STARTED AT               2011-08-14 10:26:23.936
 ***** ** ***  *** **   PROGRAM STARTED ON                              r11i3n15
 **    ****   ******    PROGRAM STARTED BY                                      
 ***** **    ** ** **   PROGRAM PROCESS ID                                   707
  **** **  *******  **  PROGRAM STARTED IN   /usr/local/u/jmlarkin/CP2K/CdSe/vib

 CP2K| version string:                CP2K version 2.2.107 (Development Version)
 CP2K| is freely available from                          http://cp2k.berlios.de/
 CP2K| Program compiled at                          Tue Jun  7 13:15:52 CDT 2011
 CP2K| Program compiled on                                             diamond01
 CP2K| Program compiled for                                   Linux-x86-64-intel
 CP2K| Last CVS entry                 cp2k_info.F/1.511/Wed Jan 19 04:35:13 2011
 CP2K| Input file name                                              temp-r-5.inp
 
 GLOBAL| Force Environment number                                              1
 GLOBAL| Basis set file name            /usr/local/u/jmlarkin/CP2K/CdSe/vib/GTH_
 GLOBAL| Geminal file name                                         BASIS_GEMINAL
 GLOBAL| Potential file name            /usr/local/u/jmlarkin/CP2K/CdSe/vib/POTE
 GLOBAL| MM Potential file name                                     MM_POTENTIAL
 GLOBAL| Coordinate file name                                      __STD_INPUT__
 GLOBAL| Method name                                                        CP2K
 GLOBAL| Project name                                                   temp-r-5
 GLOBAL| Preferred FFT library                                             FFTW3
 GLOBAL| Run type                                           VIBRATIONAL_ANALYSIS
 GLOBAL| All-to-all communication in single precision                          F
 GLOBAL| FFTs using library dependent lengths                                  F
 GLOBAL| Global print level                                               MEDIUM
 GLOBAL| Total number of message passing processes                             1
 GLOBAL| Number of threads for this process                                    1
 GLOBAL| This output is from process                                           0

 MEMORY| system memory details [Kb]
 MEMORY|                        rank 0           min           max       average
 MEMORY| MemTotal                    0             0             0             0
 MEMORY| MemFree                     0             0             0             0
 MEMORY| Buffers                     0             0             0             0
 MEMORY| Cached                      0             0             0             0
 MEMORY| Slab                        0             0             0             0
 MEMORY| SReclaimable                0             0             0             0
 MEMORY| MemLikelyFree               0             0             0             0

 WARNING : FFT library FFTW3 is not available  Trying FFTSG as a default

 *** Fundamental physical constants (SI units) ***

 *** Literature: B. J. Mohr and B. N. Taylor,
 ***             CODATA recommended values of the fundamental physical
 ***             constants: 2006, Web Version 5.1
 ***             http://physics.nist.gov/constants

 Speed of light in vacuum [m/s]                             2.99792458000000E+08
 Magnetic constant or permeability of vacuum [N/A**2]       1.25663706143592E-06
 Electric constant or permittivity of vacuum [F/m]          8.85418781762039E-12
 Planck constant (h) [J*s]                                  6.62606896000000E-34
 Planck constant (h-bar) [J*s]                              1.05457162825177E-34
 Elementary charge [C]                                      1.60217648700000E-19
 Electron mass [kg]                                         9.10938215000000E-31
 Electron g factor [ ]                                     -2.00231930436220E+00
 Proton mass [kg]                                           1.67262163700000E-27
 Fine-structure constant                                    7.29735253760000E-03
 Rydberg constant [1/m]                                     1.09737315685270E+07
 Avogrado constant [1/mol]                                  6.02214179000000E+23
 Boltzmann constant [J/K]                                   1.38065040000000E-23
 Atomic mass unit [kg]                                      1.66053878200000E-27
 Bohr radius [m]                                            5.29177208590000E-11

 *** Conversion factors ***

 [u] -> [a.u.]                                              1.82288848426455E+03
 [Angstrom] -> [Bohr] = [a.u.]                              1.88972613288564E+00
 [a.u.] = [Bohr] -> [Angstrom]                              5.29177208590000E-01
 [a.u.] -> [s]                                              2.41888432650478E-17
 [a.u.] -> [fs]                                             2.41888432650478E-02
 [a.u.] -> [J]                                              4.35974393937059E-18
 [a.u.] -> [K]                                              3.15774647902944E+05
 [a.u.] -> [kJ/mol]                                         2.62549961709828E+03
 [a.u.] -> [kcal/mol]                                       6.27509468713739E+02
 [a.u.] -> [Pa]                                             2.94210107994716E+13
 [a.u.] -> [bar]                                            2.94210107994716E+08
 [a.u.] -> [atm]                                            2.90362800883016E+08
 [a.u.] -> [eV]                                             2.72113838565563E+01
 [a.u.] -> [Hz]                                             6.57968392072181E+15
 [a.u.] -> [1/cm] (wave numbers)                            2.19474631370540E+05
 [a.u./Bohr**2] -> [1/cm]                                   5.14048714338585E+03
 

 CELL| Volume [angstrom^3]:                                             1300.000
 CELL| Vector a [angstrom]:      10.000     0.000     0.000    |a| =      10.000
 CELL| Vector b [angstrom]:       0.000    10.000     0.000    |b| =      10.000
 CELL| Vector c [angstrom]:       0.000     0.000    13.000    |c| =      13.000
 CELL| Angle (b,c), alpha [degree]:                                       90.000
 CELL| Angle (a,c), beta  [degree]:                                       90.000
 CELL| Angle (a,b), gamma [degree]:                                       90.000

 CELL_REF| Volume [angstrom^3]:                                         1300.000
 CELL_REF| Vector a [angstrom    10.000     0.000     0.000    |a| =      10.000
 CELL_REF| Vector b [angstrom     0.000    10.000     0.000    |b| =      10.000
 CELL_REF| Vector c [angstrom     0.000     0.000    13.000    |c| =      13.000
 CELL_REF| Angle (b,c), alpha [degree]:                                   90.000
 CELL_REF| Angle (a,c), beta  [degree]:                                   90.000
 CELL_REF| Angle (a,b), gamma [degree]:                                   90.000

 CELL_TOP| Volume [angstrom^3]:                                         1300.000
 CELL_TOP| Vector a [angstrom    10.000     0.000     0.000    |a| =      10.000
 CELL_TOP| Vector b [angstrom     0.000    10.000     0.000    |b| =      10.000
 CELL_TOP| Vector c [angstrom     0.000     0.000    13.000    |c| =      13.000
 CELL_TOP| Angle (b,c), alpha [degree]:                                   90.000
 CELL_TOP| Angle (a,c), beta  [degree]:                                   90.000
 CELL_TOP| Angle (a,b), gamma [degree]:                                   90.000
 
 GENERATE|  Preliminary Number of Bonds generated:                             0
 GENERATE|  Achieved consistency in connectivity generation.
 GENERATE|  Number of Bonds generated:                                         0
 GENERATE|  Preliminary Number of Bends generated:                             0
 GENERATE|  Number of Bends generated:                                         0
 GENERATE|  Number of UB generated:                                            0
 GENERATE|  Preliminary Number of Torsions generated:                          0
 GENERATE|  Number of Torsions generated:                                      0
 GENERATE|  Number of Impropers generated:                                     0
 GENERATE|  Number of 1-4 interactions generated:                              0

 *******************************************************************************
 *******************************************************************************
 **                                                                           **
 **     #####                         ##              ##                      **
 **    ##   ##            ##          ##              ##                      **
 **   ##     ##                       ##            ######                    **
 **   ##     ##  ##   ##  ##   #####  ##  ##   ####   ##    #####    #####    **
 **   ##     ##  ##   ##  ##  ##      ## ##   ##      ##   ##   ##  ##   ##   **
 **   ##  ## ##  ##   ##  ##  ##      ####     ###    ##   ######   ######    **
 **    ##  ###   ##   ##  ##  ##      ## ##      ##   ##   ##       ##        **
 **     #######   #####   ##   #####  ##  ##  ####    ##    #####   ##        **
 **           ##                                                    ##        **
 **                                                                           **
 **                                                ... make the atoms dance   **
 **                                                                           **
 **            Copyright (C) by CP2K Developers Group (2000 - 2011)           **
 **                                                                           **
 *******************************************************************************

 DFT| Spin restricted Kohn-Sham (RKS) calculation                            RKS
 DFT| Multiplicity                                                             1
 DFT| Number of spin states                                                    1
 DFT| Charge                                                                   0
 DFT| Self-interaction correction (SIC)                                       NO
 DFT| Cutoffs: density                                              1.000000E-10
 DFT|          gradient                                             1.000000E-10
 DFT|          tau                                                  1.000000E-10
 DFT|          cutoff_smoothing_range                               0.000000E+00
 DFT| XC density smoothing                                                  NONE
 DFT| XC derivatives                                                          PW
 FUNCTIONAL| ROUTINE=NEW
 FUNCTIONAL| PBE:
 FUNCTIONAL| J.P.Perdew, K.Burke, M.Ernzerhof, Phys. Rev. Letter, vol. 77, n 18,
 FUNCTIONAL|  pp. 3865-3868, (1996){spin unpolarized}
 vdW POTENTIAL|                                                   Pair Potential
 vdW POTENTIAL|                   Potential Form: S. Grimme, JCC 27: 1787 (2006)
 vdW POTENTIAL|                   Cutoff Radius [Bohr]:                    20.00
 vdW POTENTIAL|                   Scaling Factor:                         0.7500
 vdW POTENTIAL|                   Exp Prefactor for Damping:                20.0
 vdW PARAMETER|  Atom=O    C6[J*nm^6*mol^-1]=  0.7000         r(vdW)[A]=  1.3420
 vdW PARAMETER|  Atom=C    C6[J*nm^6*mol^-1]=  1.7500         r(vdW)[A]=  1.4520

 QS| Method:                                                                 GPW
 QS| Density plane wave grid type                        NON-SPHERICAL FULLSPACE
 QS| Number of grid levels:                                                    5
 QS| Density cutoff [a.u.]:                                                175.0
 QS| Multi grid cutoff [a.u.]: 1) grid level                               175.0
 QS|                           2) grid level                                58.3
 QS|                           3) grid level                                19.4
 QS|                           4) grid level                                 6.5
 QS|                           5) grid level                                 2.2
 QS| Grid level progression factor:                                          3.0
 QS| Relative density cutoff [a.u.]:                                        15.0
 QS| Consistent realspace mapping and integration 
 QS| Interaction thresholds: eps_pgf_orb:                                1.0E-06
 QS|                         eps_filter_matrix:                          0.0E+00
 QS|                         eps_core_charge:                            1.0E-14
 QS|                         eps_rho_gspace:                             1.0E-12
 QS|                         eps_rho_rspace:                             1.0E-12
 QS|                         eps_gvg_rspace:                             1.0E-06
 QS|                         eps_ppl:                                    1.0E-02
 QS|                         eps_ppnl:                                   1.0E-08


 ATOMIC KIND INFORMATION

  1. Atomic kind: O                                     Number of atoms:       2

     Orbital basis set information for                                 QZV2P-GTH

       Number of orbital shell sets:                                           2
       Number of orbital shells:                                              10
       Number of primitive Cartesian functions:                                8
       Number of Cartesian basis functions:                                   28
       Number of spherical basis functions:                                   26

       Normalised Cartesian orbitals:

                        Set   Shell   Orbital            Exponent    Coefficient

                          1       1    2s               11.829868      -0.299448
                                                         4.932631      -0.313061
                                                         1.931300       0.178604
                                                         0.772400       0.305726
                                                         0.297633       0.124142
                                                         0.107006       0.008000

                          1       2    3s               11.829868       0.000000
                                                         4.932631       0.000000
                                                         1.931300       0.000000
                                                         0.772400       0.587208
                                                         0.297633       0.000000
                                                         0.107006       0.000000

                          1       3    4s               11.829868       0.000000
                                                         4.932631       0.000000
                                                         1.931300       0.000000
                                                         0.772400       0.000000
                                                         0.297633       0.287191
                                                         0.107006       0.000000

                          1       4    5s               11.829868       0.000000
                                                         4.932631       0.000000
                                                         1.931300       0.000000
                                                         0.772400       0.000000
                                                         0.297633       0.000000
                                                         0.107006       0.133342

                          1       5    3px              11.829868       1.219605
                                                         4.932631       1.393422
                                                         1.931300       0.888549
                                                         0.772400       0.378112
                                                         0.297633       0.103178
                                                         0.107006       0.011555
                          1       5    3py              11.829868       1.219605
                                                         4.932631       1.393422
                                                         1.931300       0.888549
                                                         0.772400       0.378112
                                                         0.297633       0.103178
                                                         0.107006       0.011555
                          1       5    3pz              11.829868       1.219605
                                                         4.932631       1.393422
                                                         1.931300       0.888549
                                                         0.772400       0.378112
                                                         0.297633       0.103178
                                                         0.107006       0.011555

                          1       6    4px              11.829868       0.000000
                                                         4.932631       0.000000
                                                         1.931300       0.000000
                                                         0.772400       1.032151
                                                         0.297633       0.000000
                                                         0.107006       0.000000
                          1       6    4py              11.829868       0.000000
                                                         4.932631       0.000000
                                                         1.931300       0.000000
                                                         0.772400       1.032151
                                                         0.297633       0.000000
                                                         0.107006       0.000000
                          1       6    4pz              11.829868       0.000000
                                                         4.932631       0.000000
                                                         1.931300       0.000000
                                                         0.772400       1.032151
                                                         0.297633       0.000000
                                                         0.107006       0.000000

                          1       7    5px              11.829868       0.000000
                                                         4.932631       0.000000
                                                         1.931300       0.000000
                                                         0.772400       0.000000
                                                         0.297633       0.313359
                                                         0.107006       0.000000
                          1       7    5py              11.829868       0.000000
                                                         4.932631       0.000000
                                                         1.931300       0.000000
                                                         0.772400       0.000000
                                                         0.297633       0.313359
                                                         0.107006       0.000000
                          1       7    5pz              11.829868       0.000000
                                                         4.932631       0.000000
                                                         1.931300       0.000000
                                                         0.772400       0.000000
                                                         0.297633       0.313359
                                                         0.107006       0.000000

                          1       8    6px              11.829868       0.000000
                                                         4.932631       0.000000
                                                         1.931300       0.000000
                                                         0.772400       0.000000
                                                         0.297633       0.000000
                                                         0.107006       0.087237
                          1       8    6py              11.829868       0.000000
                                                         4.932631       0.000000
                                                         1.931300       0.000000
                                                         0.772400       0.000000
                                                         0.297633       0.000000
                                                         0.107006       0.087237
                          1       8    6pz              11.829868       0.000000
                                                         4.932631       0.000000
                                                         1.931300       0.000000
                                                         0.772400       0.000000
                                                         0.297633       0.000000
                                                         0.107006       0.087237

                          2       1    3dx2              2.314000       7.145709
                                                         0.645000       0.000000
                          2       1    3dxy              2.314000      12.376731
                                                         0.645000       0.000000
                          2       1    3dxz              2.314000      12.376731
                                                         0.645000       0.000000
                          2       1    3dy2              2.314000       7.145709
                                                         0.645000       0.000000
                          2       1    3dyz              2.314000      12.376731
                                                         0.645000       0.000000
                          2       1    3dz2              2.314000       7.145709
                                                         0.645000       0.000000

                          2       2    4dx2              2.314000       0.000000
                                                         0.645000       0.764080
                          2       2    4dxy              2.314000       0.000000
                                                         0.645000       1.323426
                          2       2    4dxz              2.314000       0.000000
                                                         0.645000       1.323426
                          2       2    4dy2              2.314000       0.000000
                                                         0.645000       0.764080
                          2       2    4dyz              2.314000       0.000000
                                                         0.645000       1.323426
                          2       2    4dz2              2.314000       0.000000
                                                         0.645000       0.764080

     Potential information for                                        GTH-PBE-q6

       Description:                       Goedecker-Teter-Hutter pseudopotential
                                           Goedecker et al., PRB 54, 1703 (1996)
                                          Hartwigsen et al., PRB 58, 3641 (1998)
                                                      Krack, TCA 114, 145 (2005)

       Gaussian exponent of the core charge distribution:               8.360253
       Electronic configuration (s p d ...):                               2   4

       Parameters of the local part of the GTH pseudopotential:

                          rloc        C1          C2          C3          C4
                        0.244554  -16.667215    2.487311

       Parameters of the non-local part of the GTH pseudopotential:

                   l      r(l)      h(i,j,l)

                   0    0.220956   18.337458
                   1    0.211332

  2. Atomic kind: C                                     Number of atoms:       1

     Orbital basis set information for                                 QZV2P-GTH

       Number of orbital shell sets:                                           2
       Number of orbital shells:                                              10
       Number of primitive Cartesian functions:                                8
       Number of Cartesian basis functions:                                   28
       Number of spherical basis functions:                                   26

       Normalised Cartesian orbitals:

                        Set   Shell   Orbital            Exponent    Coefficient

                          1       1    2s                6.211790      -0.181428
                                                         2.606342      -0.189726
                                                         1.011026       0.098111
                                                         0.409977       0.189293
                                                         0.161541       0.080390
                                                         0.059735       0.005156

                          1       2    3s                6.211790       0.000000
                                                         2.606342       0.000000
                                                         1.011026       0.000000
                                                         0.409977       0.365157
                                                         0.161541       0.000000
                                                         0.059735       0.000000

                          1       3    4s                6.211790       0.000000
                                                         2.606342       0.000000
                                                         1.011026       0.000000
                                                         0.409977       0.000000
                                                         0.161541       0.181603
                                                         0.059735       0.000000

                          1       4    5s                6.211790       0.000000
                                                         2.606342       0.000000
                                                         1.011026       0.000000
                                                         0.409977       0.000000
                                                         0.161541       0.000000
                                                         0.059735       0.086116

                          1       5    3px               6.211790       0.455098
                                                         2.606342       0.567807
                                                         1.011026       0.369480
                                                         0.409977       0.170387
                                                         0.161541       0.050941
                                                         0.059735       0.005893
                          1       5    3py               6.211790       0.455098
                                                         2.606342       0.567807
                                                         1.011026       0.369480
                                                         0.409977       0.170387
                                                         0.161541       0.050941
                                                         0.059735       0.005893
                          1       5    3pz               6.211790       0.455098
                                                         2.606342       0.567807
                                                         1.011026       0.369480
                                                         0.409977       0.170387
                                                         0.161541       0.050941
                                                         0.059735       0.005893

                          1       6    4px               6.211790       0.000000
                                                         2.606342       0.000000
                                                         1.011026       0.000000
                                                         0.409977       0.467616
                                                         0.161541       0.000000
                                                         0.059735       0.000000
                          1       6    4py               6.211790       0.000000
                                                         2.606342       0.000000
                                                         1.011026       0.000000
                                                         0.409977       0.467616
                                                         0.161541       0.000000
                                                         0.059735       0.000000
                          1       6    4pz               6.211790       0.000000
                                                         2.606342       0.000000
                                                         1.011026       0.000000
                                                         0.409977       0.467616
                                                         0.161541       0.000000
                                                         0.059735       0.000000

                          1       7    5px               6.211790       0.000000
                                                         2.606342       0.000000
                                                         1.011026       0.000000
                                                         0.409977       0.000000
                                                         0.161541       0.145980
                                                         0.059735       0.000000
                          1       7    5py               6.211790       0.000000
                                                         2.606342       0.000000
                                                         1.011026       0.000000
                                                         0.409977       0.000000
                                                         0.161541       0.145980
                                                         0.059735       0.000000
                          1       7    5pz               6.211790       0.000000
                                                         2.606342       0.000000
                                                         1.011026       0.000000
                                                         0.409977       0.000000
                                                         0.161541       0.145980
                                                         0.059735       0.000000

                          1       8    6px               6.211790       0.000000
                                                         2.606342       0.000000
                                                         1.011026       0.000000
                                                         0.409977       0.000000
                                                         0.161541       0.000000
                                                         0.059735       0.042095
                          1       8    6py               6.211790       0.000000
                                                         2.606342       0.000000
                                                         1.011026       0.000000
                                                         0.409977       0.000000
                                                         0.161541       0.000000
                                                         0.059735       0.042095
                          1       8    6pz               6.211790       0.000000
                                                         2.606342       0.000000
                                                         1.011026       0.000000
                                                         0.409977       0.000000
                                                         0.161541       0.000000
                                                         0.059735       0.042095

                          2       1    3dx2              1.097000       1.935401
                                                         0.318000       0.000000
                          2       1    3dxy              1.097000       3.352214
                                                         0.318000       0.000000
                          2       1    3dxz              1.097000       3.352214
                                                         0.318000       0.000000
                          2       1    3dy2              1.097000       1.935401
                                                         0.318000       0.000000
                          2       1    3dyz              1.097000       3.352214
                                                         0.318000       0.000000
                          2       1    3dz2              1.097000       1.935401
                                                         0.318000       0.000000

                          2       2    4dx2              1.097000       0.000000
                                                         0.318000       0.221644
                          2       2    4dxy              1.097000       0.000000
                                                         0.318000       0.383899
                          2       2    4dxz              1.097000       0.000000
                                                         0.318000       0.383899
                          2       2    4dy2              1.097000       0.000000
                                                         0.318000       0.221644
                          2       2    4dyz              1.097000       0.000000
                                                         0.318000       0.383899
                          2       2    4dz2              1.097000       0.000000
                                                         0.318000       0.221644

     Potential information for                                        GTH-PBE-q4

       Description:                       Goedecker-Teter-Hutter pseudopotential
                                           Goedecker et al., PRB 54, 1703 (1996)
                                          Hartwigsen et al., PRB 58, 3641 (1998)
                                                      Krack, TCA 114, 145 (2005)

       Gaussian exponent of the core charge distribution:               4.364419
       Electronic configuration (s p d ...):                               2   2

       Parameters of the local part of the GTH pseudopotential:

                          rloc        C1          C2          C3          C4
                        0.338471   -8.803674    1.339211

       Parameters of the non-local part of the GTH pseudopotential:

                   l      r(l)      h(i,j,l)

                   0    0.302576    9.622487
                   1    0.291507


 MOLECULE KIND INFORMATION


 All atoms are their own molecule, skipping detailed information


 TOTAL NUMBERS AND MAXIMUM NUMBERS

  Total number of            - Atomic kinds:                                   2
                             - Atoms:                                          3
                             - Shell sets:                                     6
                             - Shells:                                        30
                             - Primitive Cartesian functions:                 24
                             - Cartesian basis functions:                     84
                             - Spherical basis functions:                     78

  Maximum angular momentum of- Orbital basis functions:                        2
                             - Local part of the GTH pseudopotential:          2
                             - Non-local part of the GTH pseudopotential:      0


 MODULE QUICKSTEP:  ATOMIC COORDINATES IN angstrom

  Atom  Kind  Element       X           Y           Z          Z(eff)       Mass

       1     1 O    8    0.000000    0.000000   -1.167609      6.00      15.9994
       2     1 O    8    0.000000    0.000000    1.167609      6.00      15.9994
       3     2 C    6    0.000000    0.000000    0.000000      4.00      12.0107




 SCF PARAMETERS         Density guess:                                   RESTART
                        --------------------------------------------------------
                        max_scf:                                              30
                        max_scf_history:                                       0
                        max_diis:                                              4
                        --------------------------------------------------------
                        eps_scf:                                        1.00E-06
                        eps_scf_history:                                0.00E+00
                        eps_diis:                                       1.00E-01
                        eps_eigval:                                     1.00E-05
                        --------------------------------------------------------
                        level_shift [a.u.]:                                 0.00
                        --------------------------------------------------------
                        Outer loop SCF in use 
                        No variables optimised in outer loop
                        eps_scf                                         1.00E-06
                        max_scf                                               20
                        No outer loop optimization
                        step_size                                       5.00E-01

 PW_GRID: Information for grid number                                          7
 PW_GRID: Cutoff [a.u.]                                                    350.0
 PW_GRID: spherical cutoff:                                                   NO
 PW_GRID:   Bounds   1            -80      79                Points:         160
 PW_GRID:   Bounds   2            -80      79                Points:         160
 PW_GRID:   Bounds   3           -108     107                Points:         216
 PW_GRID: Volume element (a.u.^3)  0.1587E-02     Volume (a.u.^3)      8772.8350
 PW_GRID: Grid span                                                    FULLSPACE

 PW_GRID: Information for grid number                                          8
 PW_GRID: Cutoff [a.u.]                                                    175.0
 PW_GRID: spherical cutoff:                                                   NO
 PW_GRID:   Bounds   1            -60      59                Points:         120
 PW_GRID:   Bounds   2            -60      59                Points:         120
 PW_GRID:   Bounds   3            -75      74                Points:         150
 PW_GRID: Volume element (a.u.^3)  0.4061E-02     Volume (a.u.^3)      8772.8350
 PW_GRID: Grid span                                                    FULLSPACE

 PW_GRID: Information for grid number                                          9
 PW_GRID: Cutoff [a.u.]                                                     58.3
 PW_GRID: spherical cutoff:                                                   NO
 PW_GRID:   Bounds   1            -36      35                Points:          72
 PW_GRID:   Bounds   2            -36      35                Points:          72
 PW_GRID:   Bounds   3            -45      44                Points:          90
 PW_GRID: Volume element (a.u.^3)  0.1880E-01     Volume (a.u.^3)      8772.8350
 PW_GRID: Grid span                                                    FULLSPACE

 PW_GRID: Information for grid number                                         10
 PW_GRID: Cutoff [a.u.]                                                     19.4
 PW_GRID: spherical cutoff:                                                   NO
 PW_GRID:   Bounds   1            -20      19                Points:          40
 PW_GRID:   Bounds   2            -20      19                Points:          40
 PW_GRID:   Bounds   3            -27      26                Points:          54
 PW_GRID: Volume element (a.u.^3)  0.1015         Volume (a.u.^3)      8772.8350
 PW_GRID: Grid span                                                    FULLSPACE

 PW_GRID: Information for grid number                                         11
 PW_GRID: Cutoff [a.u.]                                                      6.5
 PW_GRID: spherical cutoff:                                                   NO
 PW_GRID:   Bounds   1            -12      11                Points:          24
 PW_GRID:   Bounds   2            -12      11                Points:          24
 PW_GRID:   Bounds   3            -15      14                Points:          30
 PW_GRID: Volume element (a.u.^3)  0.5077         Volume (a.u.^3)      8772.8350
 PW_GRID: Grid span                                                    FULLSPACE

 PW_GRID: Information for grid number                                         12
 PW_GRID: Cutoff [a.u.]                                                      2.2
 PW_GRID: spherical cutoff:                                                   NO
 PW_GRID:   Bounds   1             -7       7                Points:          15
 PW_GRID:   Bounds   2             -7       7                Points:          15
 PW_GRID:   Bounds   3             -9       8                Points:          18
 PW_GRID: Volume element (a.u.^3)   2.166         Volume (a.u.^3)      8772.8350
 PW_GRID: Grid span                                                    FULLSPACE

 RS_GRID: Information for grid number                                          8
 RS_GRID:   Bounds   1            -60      59                Points:         120
 RS_GRID:   Bounds   2            -60      59                Points:         120
 RS_GRID:   Bounds   3            -75      74                Points:         150

 RS_GRID: Information for grid number                                          9
 RS_GRID:   Bounds   1            -36      35                Points:          72
 RS_GRID:   Bounds   2            -36      35                Points:          72
 RS_GRID:   Bounds   3            -45      44                Points:          90

 RS_GRID: Information for grid number                                         10
 RS_GRID:   Bounds   1            -20      19                Points:          40
 RS_GRID:   Bounds   2            -20      19                Points:          40
 RS_GRID:   Bounds   3            -27      26                Points:          54

 RS_GRID: Information for grid number                                         11
 RS_GRID:   Bounds   1            -12      11                Points:          24
 RS_GRID:   Bounds   2            -12      11                Points:          24
 RS_GRID:   Bounds   3            -15      14                Points:          30

 RS_GRID: Information for grid number                                         12
 RS_GRID:   Bounds   1             -7       7                Points:          15
 RS_GRID:   Bounds   2             -7       7                Points:          15
 RS_GRID:   Bounds   3             -9       8                Points:          18

 DISTRIBUTION OF THE PARTICLES (ROWS)
              Process row      Number of particles         Number of matrix rows
                        0                        3                            -1
                      Sum                        3                            -1

 DISTRIBUTION OF THE PARTICLES (COLUMNS)
              Process col      Number of particles      Number of matrix columns
                        0                        3                            -1
                      Sum                        3                            -1

 DISTRIBUTION OF THE NEIGHBOR LISTS
              Total number of particle pairs:                                 39
              Total number of matrix elements:                             26364
              Average number of particle pairs:                               39
              Maximum number of particle pairs:                               39
              Average number of matrix element:                            26364
              Maximum number of matrix elements:                           26364


 DISTRIBUTION OF THE OVERLAP MATRIX
              Number  of non-zero blocks:                                      6
              Percentage non-zero blocks:                                 100.00
              Average number of blocks per CPU:                                6
              Maximum number of blocks per CPU:                                6
              Average number of matrix elements per CPU:                    4056
              Maximum number of matrix elements per CPU:                    4056

 Number of electrons:                                                         16
 Number of occupied orbitals:                                                  8
 Number of molecular orbitals:                                                 8

 Number of orbital functions:                                                 78
 Number of independent orbital functions:                                     78

 Extrapolation method: initial_guess

 *** 10:26:35 WARNING in qs_initial_guess:calculate_first_density_matrix    ***
 *** err=-300  User requested to restart the wavefunction from the file     ***
 *** named: temp-r-5-RESTART.wfn. This file does not exist. Please check    ***
 *** the existence of the file or change properly the value of the keyword  ***
 *** WFN_RESTART_FILE_NAME. Calculation continues using ATOMIC GUESS.       ***
 *** /usr/local/u/jmlarkin/CP2K/cp2k/makefiles/../src/qs_initial_guess.F    ***
 *** line    231                                                            ***

 Atomic guess: The first density matrix is obtained in terms of atomic orbitals
               and electronic configurations assigned to each atomic kind

 Guess for atomic kind: O

 Electronic structure
    Total number of core electrons                                          2.00
    Total number of valence electrons                                       6.00
    Total number of electrons                                               8.00
    Multiplicity                                                   not specified
    S   [  2.00] 2.00
    P      4.00
 

 *******************************************************************************
                  Iteration          Convergence                     Energy [au]
 *******************************************************************************
                          1         2.18546                     -14.421592257754
                          2         2.69278                     -13.555084223277
                          3        0.447857                     -15.582518344613
                          4        0.533362E-01                 -15.656339190379
                          5        0.343584E-02                 -15.657205503018
                          6        0.157467E-03                 -15.657209313096
                          7        0.668939E-06                 -15.657209321838

 Energy components [Hartree]           Total Energy ::          -15.657209321838
                                        Band Energy ::           -3.002498769363
                                     Kinetic Energy ::           11.774068762364
                                   Potential Energy ::          -27.431278084202
                                      Virial (-V/T) ::            2.329804474379
                                        Core Energy ::          -26.139244223055
                                          XC Energy ::           -3.153870619768
                                     Coulomb Energy ::           13.635905520985
                       Total Pseudopotential Energy ::          -37.948527599483
                       Local Pseudopotential Energy ::          -39.248895363653
                    Nonlocal Pseudopotential Energy ::            1.300367764171
                                        Confinement ::            0.352146140634

 Orbital energies  State     L     Occupation   Energy[a.u.]          Energy[eV]

                       1     0          2.000      -0.865035          -23.538787
                       2     0          0.000       0.148161            4.031658
                       3     0          0.000       1.268684           34.522651
                       4     0          0.000      15.043188          409.345953
 
                       1     1          4.000      -0.318107           -8.656143
                       2     1          0.000       0.229143            6.235300
                       3     1          0.000       1.076359           29.289206
                       4     1          0.000       4.260328          115.929412
 

 Guess for atomic kind: C

 Electronic structure
    Total number of core electrons                                          2.00
    Total number of valence electrons                                       4.00
    Total number of electrons                                               6.00
    Multiplicity                                                   not specified
    S   [  2.00] 2.00
    P      2.00
 

 *******************************************************************************
                  Iteration          Convergence                     Energy [au]
 *******************************************************************************
                          1        0.298189                      -5.146106674700
                          2        0.233825                      -5.202427473298
                          3        0.178756E-01                  -5.283543978370
                          4        0.570045E-03                  -5.284038237521
                          5        0.299436E-04                  -5.284038356028
                          6        0.163542E-06                  -5.284038357465

 Energy components [Hartree]           Total Energy ::           -5.284038357465
                                        Band Energy ::           -1.317146178102
                                     Kinetic Energy ::            3.390422048629
                                   Potential Energy ::           -8.674460406095
                                      Virial (-V/T) ::            2.558519347053
                                        Core Energy ::           -8.295784343766
                                          XC Energy ::           -1.377306946079
                                     Coulomb Energy ::            4.389052932380
                       Total Pseudopotential Energy ::          -11.720389813560
                       Local Pseudopotential Energy ::          -12.366572543168
                    Nonlocal Pseudopotential Energy ::            0.646182729609
                                        Confinement ::            0.341834211642

 Orbital energies  State     L     Occupation   Energy[a.u.]          Energy[eV]

                       1     0          2.000      -0.484432          -13.182076
                       2     0          0.000       0.102012            2.775900
                       3     0          0.000       0.691171           18.807710
                       4     0          0.000       8.065504          219.473523
 
                       1     1          2.000      -0.174141           -4.738609
                       2     1          0.000       0.160398            4.364645
                       3     1          0.000       0.605105           16.465744
                       4     1          0.000       2.314792           62.988684
 
 Re-scaling the density matrix to get the right number of electrons
                  # Electrons              Trace(P)               Scaling factor
                           16                16.000                        1.000


 SCF WAVEFUNCTION OPTIMIZATION

  ----------------------------------- OT ---------------------------------------

  Allowing for rotations:  F
  Optimizing orbital energies:  F
  Minimizer      : DIIS                : direct inversion
                                         in the iterative subspace
                            using      : -   7 DIIS vectors
                                         - safer DIIS on
  Preconditioner : FULL_ALL            : diagonalization, state selective
  Precond_solver : DEFAULT
  stepsize       :    0.15000000
  energy_gap     :    0.00100000

  eps_taylor     :   0.10000E-15
  max_taylor     :             4

  mixed_precision    : F

  ----------------------------------- OT ---------------------------------------

  Step     Update method      Time    Convergence         Total energy    Change
  ------------------------------------------------------------------------------

  Electronic density on regular grids:        -16.0000000110       -0.0000000110
  Core density on regular grids:               16.0000000000        0.0000000000
  Total charge density on r-space grids:       -0.0000000110
  Total charge density g-space grids:          -0.0000000110

     1 OT DIIS     0.15E+00    5.8     0.16119218       -36.1667960705 -3.62E+01

  Electronic density on regular grids:        -16.0000000110       -0.0000000110
  Core density on regular grids:               16.0000000000        0.0000000000
  Total charge density on r-space grids:       -0.0000000110
  Total charge density g-space grids:          -0.0000000110

     2 OT DIIS     0.15E+00    4.4     0.43209770       -35.4726143006  6.94E-01

  Electronic density on regular grids:        -16.0000000153       -0.0000000153
  Core density on regular grids:               16.0000000000        0.0000000000
  Total charge density on r-space grids:       -0.0000000153
  Total charge density g-space grids:          -0.0000000153

     3 OT DIIS     0.15E+00    4.1     0.12501903       -37.0325493036 -1.56E+00

  Electronic density on regular grids:        -16.0000000098       -0.0000000098
  Core density on regular grids:               16.0000000000        0.0000000000
  Total charge density on r-space grids:       -0.0000000098
  Total charge density g-space grids:          -0.0000000098

     4 OT DIIS     0.15E+00    4.1     0.07884602       -37.4269256045 -3.94E-01

  Electronic density on regular grids:        -16.0000000105       -0.0000000105
  Core density on regular grids:               16.0000000000        0.0000000000
  Total charge density on r-space grids:       -0.0000000105
  Total charge density g-space grids:          -0.0000000105

     5 OT DIIS     0.15E+00    4.0     0.05324141       -37.6203824903 -1.93E-01

  Electronic density on regular grids:        -16.0000000084       -0.0000000084
  Core density on regular grids:               16.0000000000        0.0000000000
  Total charge density on r-space grids:       -0.0000000084
  Total charge density g-space grids:          -0.0000000084

     6 OT DIIS     0.15E+00    4.0     0.06303261       -37.6954191982 -7.50E-02

  Electronic density on regular grids:        -16.0000000089       -0.0000000089
  Core density on regular grids:               16.0000000000        0.0000000000
  Total charge density on r-space grids:       -0.0000000089
  Total charge density g-space grids:          -0.0000000089

     7 OT DIIS     0.15E+00    3.9     0.05542553       -37.6961450349 -7.26E-04

  Electronic density on regular grids:        -16.0000000074       -0.0000000074
  Core density on regular grids:               16.0000000000        0.0000000000
  Total charge density on r-space grids:       -0.0000000075
  Total charge density g-space grids:          -0.0000000075

     8 OT DIIS     0.15E+00    3.9     0.01178206       -37.7593269552 -6.32E-02

  Electronic density on regular grids:        -16.0000000077       -0.0000000077
  Core density on regular grids:               16.0000000000        0.0000000000
  Total charge density on r-space grids:       -0.0000000077
  Total charge density g-space grids:          -0.0000000077

     9 OT DIIS     0.15E+00    3.9     0.00971952       -37.7643198627 -4.99E-03

  Electronic density on regular grids:        -16.0000000078       -0.0000000078
  Core density on regular grids:               16.0000000000        0.0000000000
  Total charge density on r-space grids:       -0.0000000078
  Total charge density g-space grids:          -0.0000000078

    10 OT DIIS     0.15E+00    3.9     0.00716877       -37.7659296502 -1.61E-03

  Electronic density on regular grids:        -16.0000000080       -0.0000000080
  Core density on regular grids:               16.0000000000        0.0000000000
  Total charge density on r-space grids:       -0.0000000080
  Total charge density g-space grids:          -0.0000000080

    11 OT DIIS     0.15E+00    3.9     0.00319377       -37.7666848133 -7.55E-04

  Electronic density on regular grids:        -16.0000000080       -0.0000000080
  Core density on regular grids:               16.0000000000        0.0000000000
  Total charge density on r-space grids:       -0.0000000080
  Total charge density g-space grids:          -0.0000000080

    12 OT DIIS     0.15E+00    3.9     0.00144919       -37.7670893203 -4.05E-04

  Electronic density on regular grids:        -16.0000000080       -0.0000000080
  Core density on regular grids:               16.0000000000        0.0000000000
  Total charge density on r-space grids:       -0.0000000080
  Total charge density g-space grids:          -0.0000000080

    13 OT DIIS     0.15E+00    3.9     0.00090061       -37.7672104591 -1.21E-04

  Electronic density on regular grids:        -16.0000000080       -0.0000000080
  Core density on regular grids:               16.0000000000        0.0000000000
  Total charge density on r-space grids:       -0.0000000080
  Total charge density g-space grids:          -0.0000000080

    14 OT DIIS     0.15E+00    3.9     0.00041678       -37.7672477509 -3.73E-05

  Electronic density on regular grids:        -16.0000000081       -0.0000000081
  Core density on regular grids:               16.0000000000        0.0000000000
  Total charge density on r-space grids:       -0.0000000081
  Total charge density g-space grids:          -0.0000000081

    15 OT DIIS     0.15E+00    4.0     0.00034988       -37.7672582097 -1.05E-05

  Electronic density on regular grids:        -16.0000000080       -0.0000000080
  Core density on regular grids:               16.0000000000        0.0000000000
  Total charge density on r-space grids:       -0.0000000080
  Total charge density g-space grids:          -0.0000000080

    16 OT DIIS     0.15E+00    4.0     0.00022908       -37.7672615048 -3.30E-06

  Electronic density on regular grids:        -16.0000000080       -0.0000000080
  Core density on regular grids:               16.0000000000        0.0000000000
  Total charge density on r-space grids:       -0.0000000081
  Total charge density g-space grids:          -0.0000000081

    17 OT DIIS     0.15E+00    4.0     0.00011450       -37.7672630362 -1.53E-06

  Electronic density on regular grids:        -16.0000000080       -0.0000000080
  Core density on regular grids:               16.0000000000        0.0000000000
  Total charge density on r-space grids:       -0.0000000081
  Total charge density g-space grids:          -0.0000000081

    18 OT DIIS     0.15E+00    4.0     0.00014127       -37.7672635373 -5.01E-07

  Electronic density on regular grids:        -16.0000000080       -0.0000000080
  Core density on regular grids:               16.0000000000        0.0000000000
  Total charge density on r-space grids:       -0.0000000081
  Total charge density g-space grids:          -0.0000000081

    19 OT DIIS     0.15E+00    3.9     0.00008977       -37.7672637113 -1.74E-07

  Electronic density on regular grids:        -16.0000000080       -0.0000000080
  Core density on regular grids:               16.0000000000        0.0000000000
  Total charge density on r-space grids:       -0.0000000081
  Total charge density g-space grids:          -0.0000000081

    20 OT DIIS     0.15E+00    4.0     0.00004135       -37.7672638457 -1.34E-07

  Electronic density on regular grids:        -16.0000000080       -0.0000000080
  Core density on regular grids:               16.0000000000        0.0000000000
  Total charge density on r-space grids:       -0.0000000081
  Total charge density g-space grids:          -0.0000000081

    21 OT DIIS     0.15E+00    4.0     0.00002269       -37.7672639013 -5.56E-08

  Electronic density on regular grids:        -16.0000000080       -0.0000000080
  Core density on regular grids:               16.0000000000        0.0000000000
  Total charge density on r-space grids:       -0.0000000081
  Total charge density g-space grids:          -0.0000000081

    22 OT DIIS     0.15E+00    4.1     0.00001585       -37.7672639211 -1.98E-08

  Electronic density on regular grids:        -16.0000000080       -0.0000000080
  Core density on regular grids:               16.0000000000        0.0000000000
  Total charge density on r-space grids:       -0.0000000081
  Total charge density g-space grids:          -0.0000000081

    23 OT DIIS     0.15E+00    4.0     0.00001145       -37.7672639323 -1.11E-08

  Electronic density on regular grids:        -16.0000000080       -0.0000000080
  Core density on regular grids:               16.0000000000        0.0000000000
  Total charge density on r-space grids:       -0.0000000080
  Total charge density g-space grids:          -0.0000000080

    24 OT DIIS     0.15E+00    3.9     0.00000922       -37.7672639366 -4.38E-09

  Electronic density on regular grids:        -16.0000000080       -0.0000000080
  Core density on regular grids:               16.0000000000        0.0000000000
  Total charge density on r-space grids:       -0.0000000080
  Total charge density g-space grids:          -0.0000000080

    25 OT DIIS     0.15E+00    3.9     0.00000503       -37.7672639388 -2.19E-09

  Electronic density on regular grids:        -16.0000000080       -0.0000000080
  Core density on regular grids:               16.0000000000        0.0000000000
  Total charge density on r-space grids:       -0.0000000080
  Total charge density g-space grids:          -0.0000000080

    26 OT DIIS     0.15E+00    3.8     0.00000540       -37.7672639399 -1.10E-09

  Electronic density on regular grids:        -16.0000000080       -0.0000000080
  Core density on regular grids:               16.0000000000        0.0000000000
  Total charge density on r-space grids:       -0.0000000080
  Total charge density g-space grids:          -0.0000000080

    27 OT DIIS     0.15E+00    3.8     0.00000539       -37.7672639403 -3.94E-10

  Electronic density on regular grids:        -16.0000000080       -0.0000000080
  Core density on regular grids:               16.0000000000        0.0000000000
  Total charge density on r-space grids:       -0.0000000080
  Total charge density g-space grids:          -0.0000000080

    28 OT DIIS     0.15E+00    3.8     0.00000303       -37.7672639408 -4.58E-10

  Electronic density on regular grids:        -16.0000000080       -0.0000000080
  Core density on regular grids:               16.0000000000        0.0000000000
  Total charge density on r-space grids:       -0.0000000080
  Total charge density g-space grids:          -0.0000000080

    29 OT DIIS     0.15E+00    3.8     0.00000155       -37.7672639410 -2.44E-10

  Electronic density on regular grids:        -16.0000000080       -0.0000000080
  Core density on regular grids:               16.0000000000        0.0000000000
  Total charge density on r-space grids:       -0.0000000080
  Total charge density g-space grids:          -0.0000000080

    30 OT DIIS     0.15E+00    3.8     0.00000113       -37.7672639411 -1.02E-10

  *** SCF run NOT converged ***


  Electronic density on regular grids:        -16.0000000080       -0.0000000080
  Core density on regular grids:               16.0000000000        0.0000000000
  Total charge density on r-space grids:       -0.0000000080
  Total charge density g-space grids:          -0.0000000080

  Overlap energy of the core charge distribution:               0.00000257561740
  Self energy of the core charge distribution:                -96.38742208476296
  Core Hamiltonian energy:                                     27.73437600934175
  Hartree energy:                                              39.54884061243044
  Exchange-correlation energy:                                 -8.66296448650137
  Dispersion energy:                                           -0.00009656724698

  Total energy:                                               -37.76726394112171

  outer SCF iter =    1 RMS gradient =   0.11E-05 energy =        -37.7672639411

  ----------------------------------- OT ---------------------------------------

  Allowing for rotations:  F
  Optimizing orbital energies:  F
  Minimizer      : DIIS                : direct inversion
                                         in the iterative subspace
                            using      : -   7 DIIS vectors
                                         - safer DIIS on
  Preconditioner : FULL_ALL            : diagonalization, state selective
  Precond_solver : DEFAULT
  stepsize       :    0.15000000
  energy_gap     :    0.00100000

  eps_taylor     :   0.10000E-15
  max_taylor     :             4

  mixed_precision    : F

  ----------------------------------- OT ---------------------------------------

  Step     Update method      Time    Convergence         Total energy    Change
  ------------------------------------------------------------------------------

  Electronic density on regular grids:        -16.0000000080       -0.0000000080
  Core density on regular grids:               16.0000000000        0.0000000000
  Total charge density on r-space grids:       -0.0000000080
  Total charge density g-space grids:          -0.0000000080

     1 OT DIIS     0.15E+00    7.7     0.00000084       -37.7672639412 -5.68E-11

  *** SCF run converged in     1 steps ***


  Electronic density on regular grids:        -16.0000000080       -0.0000000080
  Core density on regular grids:               16.0000000000        0.0000000000
  Total charge density on r-space grids:       -0.0000000080
  Total charge density g-space grids:          -0.0000000080

  Overlap energy of the core charge distribution:               0.00000257561740
  Self energy of the core charge distribution:                -96.38742208476296
  Core Hamiltonian energy:                                     27.73437321296723
  Hartree energy:                                              39.54884304190784
  Exchange-correlation energy:                                 -8.66296411966105
  Dispersion energy:                                           -0.00009656724698

  Total energy:                                               -37.76726394117853

  outer SCF iter =    2 RMS gradient =   0.84E-06 energy =        -37.7672639412
  outer SCF loop converged in   2 iterations or   31 steps



 MULLIKEN POPULATION ANALYSIS

 # Atom  Element  Kind  Atomic population                Net charge
      1     O        1           6.301227                 -0.301227
      2     O        1           6.306768                 -0.306768
      3     C        2           3.392005                  0.607995
 # Total charge                 16.000000                  0.000000


 MOMENTS
  The electric moments are written to file:
  /usr/local/u/jmlarkin/CP2K/CdSe/vib/./MOMENTS-moments.dat


 LOCALIZE| The spread relative to a set of orbitals is computed
 LOCALIZE| Orbitals to be localized: All the occupied
 LOCALIZE| If fractional occupation, fully occupied MOs are those within occupation tolerance of       0.00000100
 LOCALIZE| Spread defined by the Berry phase operator 
 LOCALIZE| The optimal unitary transformation is generated by the Crazy angle algorithm
 LOCALIZE| maximum angle:       0.05000000
 LOCALIZE| scaling:       1.00000000
 LOCALIZE| use diag:F
  
  Eigenvalues of the occupied subspace spin            1
 ---------------------------------------------
      -1.07437715     -1.03748320     -0.50850122     -0.46673400
      -0.46627131     -0.46627129     -0.33401960     -0.33401958
 Fermi Energy [eV] :   -9.089135

 LOCALIZATION| Computing localization properties for OCCUPIED ORBITALS. Spin:  1
          Spread Functional     sum_in -w_i ln(|z_in|^2)    sum_in w_i(1-|z_in|^2)
    Initial Spread (Berry) :                  48.9171214972       42.4510817167
 CRAZY|   Iter            value        gradient   Max. eval       limit
 CRAZY|      1 665.532079414681      0.4031E+02  0.2315E+00  0.5000E-01
 CRAZY|      2 659.825782928121      0.4097E+02  0.1766E+00  0.5000E-01
 CRAZY|      3 653.944054802960      0.3861E+02  0.1528E+00  0.5000E-01
 CRAZY|      4 647.863958372335      0.3350E+02  0.1523E+00  0.5000E-01
 CRAZY|      5 641.626992171895      0.2888E+02  0.1520E+00  0.5000E-01
 CRAZY|      6 636.079667636764      0.3320E+02  0.1517E+00  0.5000E-01
 CRAZY|      7 631.881386738361      0.3514E+02  0.1514E+00  0.5000E-01
 CRAZY|      8 628.547900970129      0.3835E+02  0.1514E+00  0.5000E-01
 CRAZY|      9 625.471173279346      0.3893E+02  0.1531E+00  0.5000E-01
 CRAZY|     10 623.049337744282      0.3496E+02  0.1528E+00  0.5000E-01
 CRAZY|     11 620.959234795591      0.3305E+02  0.1504E+00  0.5000E-01
 CRAZY|     12 619.291188672205      0.2823E+02  0.7995E-01  0.5000E-01
 CRAZY|     13 617.856957826180      0.2338E+02  0.1023E+00  0.5000E-01
 CRAZY|     14 616.726342487938      0.1743E+02  0.8576E-01  0.5000E-01
 CRAZY|     15 615.896013942573      0.1119E+02  0.9359E-01  0.5000E-01
 CRAZY|     16 615.391248631892      0.4618E+01  0.8911E-01  0.5000E-01
 CRAZY|     17 615.218242798688      0.2513E+01  0.6715E-01  0.5000E-01
 CRAZY|     18 615.172444792644      0.1135E+01  0.3252E-01  0.5000E-01
 CRAZY|     19 615.160390930171      0.6658E+00  0.1851E-01  0.5000E-01
 CRAZY|     20 615.157181733721      0.2804E+00  0.8124E-02  0.5000E-01
 CRAZY|     21 615.156316234371      0.1830E+00  0.5227E-02  0.5000E-01
 CRAZY|     22 615.156073237407      0.6609E-01  0.2818E-02  0.5000E-01
 CRAZY|     23 615.156000085378      0.5315E-01  0.2202E-02  0.5000E-01
 CRAZY|     24 615.155975022326      0.3876E-01  0.1715E-02  0.5000E-01
 CRAZY|     25 615.155964905011      0.3077E-01  0.1340E-02  0.5000E-01
 CRAZY|     26 615.155960062147      0.2382E-01  0.1046E-02  0.5000E-01
 CRAZY|     27 615.155957460507      0.1898E-01  0.8176E-03  0.5000E-01
 CRAZY|     28 615.155955957622      0.1461E-01  0.6389E-03  0.5000E-01
 CRAZY|     29 615.155955062163      0.1173E-01  0.4994E-03  0.5000E-01
 CRAZY|     30 615.155954518626      0.8936E-02  0.3905E-03  0.5000E-01
 CRAZY|     31 615.155954186875      0.7266E-02  0.3053E-03  0.5000E-01
 CRAZY|     32 615.155953983282      0.5440E-02  0.2389E-03  0.5000E-01
 CRAZY|     33 615.155953858160      0.4521E-02  0.1868E-03  0.5000E-01
 CRAZY|     34 615.155953780996      0.3289E-02  0.1463E-03  0.5000E-01
 CRAZY|     35 615.155953733282      0.2833E-02  0.1143E-03  0.5000E-01
 CRAZY|     36 615.155953703616      0.1967E-02  0.8962E-04  0.5000E-01
 CRAZY|     37 615.155953685036      0.1796E-02  0.7000E-04  0.5000E-01
 CRAZY|     38 615.155953673259      0.1153E-02  0.5495E-04  0.5000E-01
 CRAZY|     39 615.155953665657      0.1158E-02  0.4287E-04  0.5000E-01
 CRAZY|     40 615.155953660618      0.6869E-03  0.3371E-04  0.5000E-01
 CRAZY|     41 615.155953657157      0.7663E-03  0.2625E-04  0.5000E-01
 CRAZY|     42 615.155953654665      0.4738E-03  0.2070E-04  0.5000E-01
 CRAZY|     43 615.155953652762      0.5256E-03  0.1606E-04  0.5000E-01
 CRAZY|     44 615.155953651226      0.3437E-03  0.1273E-04  0.5000E-01
 CRAZY|     45 615.155953649914      0.3777E-03  0.9819E-05  0.5000E-01
 CRAZY|     46 615.155953648741      0.2640E-03  0.8018E-05  0.5000E-01
 CRAZY|     47 615.155953647649      0.2869E-03  0.7732E-05  0.5000E-01
 CRAZY|     48 615.155953646608      0.2153E-03  0.6668E-05  0.5000E-01
 CRAZY|     49 615.155953645599      0.2311E-03  0.6463E-05  0.5000E-01
 CRAZY|     50 615.155953644610      0.1855E-03  0.5841E-05  0.5000E-01
 CRAZY|     51 615.155953643635      0.1968E-03  0.5684E-05  0.5000E-01
 CRAZY|     52 615.155953642667      0.1672E-03  0.5333E-05  0.5000E-01
 CRAZY|     53 615.155953641703      0.1758E-03  0.5206E-05  0.5000E-01
 CRAZY|     54 615.155953640742      0.1560E-03  0.5022E-05  0.5000E-01
 CRAZY|     55 615.155953639784      0.1629E-03  0.4913E-05  0.5000E-01
 CRAZY|     56 615.155953638826      0.1491E-03  0.4831E-05  0.5000E-01
 CRAZY|     57 615.155953637869      0.1549E-03  0.4736E-05  0.5000E-01
 CRAZY|     58 615.155953636915      0.1449E-03  0.4741E-05  0.5000E-01
 CRAZY|     59 615.155953635957      0.1501E-03  0.4657E-05  0.5000E-01
 CRAZY|     60 615.155953635002      0.1423E-03  0.4689E-05  0.5000E-01
 CRAZY|     61 615.155953634046      0.1471E-03  0.4659E-05  0.5000E-01
 CRAZY|     62 615.155953633090      0.1407E-03  0.4665E-05  0.5000E-01
 CRAZY|     63 615.155953632132      0.1452E-03  0.4660E-05  0.5000E-01
 CRAZY|     64 615.155953631175      0.1400E-03  0.4663E-05  0.5000E-01
 CRAZY|     65 615.155953630219      0.1441E-03  0.4661E-05  0.5000E-01
 CRAZY|     66 615.155953629262      0.1409E-03  0.4663E-05  0.5000E-01
 CRAZY|     67 615.155953628307      0.1434E-03  0.4661E-05  0.5000E-01
 CRAZY|     68 615.155953627351      0.1414E-03  0.4662E-05  0.5000E-01
 CRAZY|     69 615.155953626398      0.1430E-03  0.4661E-05  0.5000E-01
 CRAZY|     70 615.155953625444      0.1417E-03  0.4662E-05  0.5000E-01
 CRAZY|     71 615.155953624489      0.1427E-03  0.4661E-05  0.5000E-01
 CRAZY|     72 615.155953623538      0.1419E-03  0.4661E-05  0.5000E-01
 CRAZY|     73 615.155953622583      0.1425E-03  0.4661E-05  0.5000E-01
 CRAZY|     74 615.155953621626      0.1421E-03  0.4661E-05  0.5000E-01
 CRAZY|     75 615.155953620672      0.1424E-03  0.4661E-05  0.5000E-01
 CRAZY|     76 615.155953619717      0.1421E-03  0.4661E-05  0.5000E-01
 CRAZY|     77 615.155953618763      0.1423E-03  0.4660E-05  0.5000E-01
 CRAZY|     78 615.155953617808      0.1422E-03  0.4660E-05  0.5000E-01
 CRAZY|     79 615.155953616854      0.1423E-03  0.4660E-05  0.5000E-01
 CRAZY|     80 615.155953615899      0.1422E-03  0.4660E-05  0.5000E-01
 CRAZY|     81 615.155953614945      0.1423E-03  0.4660E-05  0.5000E-01
 CRAZY|     82 615.155953613990      0.1422E-03  0.4660E-05  0.5000E-01
 CRAZY|     83 615.155953613037      0.1422E-03  0.4660E-05  0.5000E-01
 CRAZY|     84 615.155953612083      0.1422E-03  0.4660E-05  0.5000E-01
 CRAZY|     85 615.155953611129      0.1422E-03  0.4659E-05  0.5000E-01
 CRAZY|     86 615.155953610175      0.1422E-03  0.4659E-05  0.5000E-01
 CRAZY|     87 615.155953609220      0.1422E-03  0.4659E-05  0.5000E-01
 CRAZY|     88 615.155953608266      0.1422E-03  0.4659E-05  0.5000E-01
 CRAZY|     89 615.155953607310      0.1422E-03  0.4659E-05  0.5000E-01
 CRAZY|     90 615.155953606357      0.1422E-03  0.4659E-05  0.5000E-01
 CRAZY|     91 615.155953605404      0.1422E-03  0.4659E-05  0.5000E-01
 CRAZY|     92 615.155953604448      0.1422E-03  0.4659E-05  0.5000E-01
 CRAZY|     93 615.155953603494      0.1422E-03  0.4659E-05  0.5000E-01
 CRAZY|     94 615.155953602540      0.1422E-03  0.4658E-05  0.5000E-01
 CRAZY|     95 615.155953601587      0.1422E-03  0.4658E-05  0.5000E-01
 CRAZY|     96 615.155953600633      0.1422E-03  0.4658E-05  0.5000E-01
 CRAZY|     97 615.155953599681      0.1422E-03  0.4658E-05  0.5000E-01
 CRAZY|     98 615.155953598728      0.1422E-03  0.4658E-05  0.5000E-01
 CRAZY|     99 615.155953597777      0.1422E-03  0.4658E-05  0.5000E-01
 CRAZY|    100 615.155953596824      0.1422E-03  0.4658E-05  0.5000E-01
 CRAZY|    101 615.155953595871      0.1422E-03  0.4658E-05  0.5000E-01
 CRAZY|    102 615.155953594920      0.1422E-03  0.4658E-05  0.5000E-01
 CRAZY|    103 615.155953593967      0.1422E-03  0.4657E-05  0.5000E-01
 CRAZY|    104 615.155953593014      0.1422E-03  0.4657E-05  0.5000E-01
 CRAZY|    105 615.155953592063      0.1422E-03  0.4657E-05  0.5000E-01
 CRAZY|    106 615.155953591111      0.1421E-03  0.4657E-05  0.5000E-01
 CRAZY|    107 615.155953590159      0.1421E-03  0.4657E-05  0.5000E-01
 CRAZY|    108 615.155953589207      0.1421E-03  0.4657E-05  0.5000E-01
 CRAZY|    109 615.155953588254      0.1421E-03  0.4657E-05  0.5000E-01
 CRAZY|    110 615.155953587302      0.1421E-03  0.4657E-05  0.5000E-01
 CRAZY|    111 615.155953586349      0.1421E-03  0.4656E-05  0.5000E-01
 CRAZY|    112 615.155953585396      0.1421E-03  0.4656E-05  0.5000E-01
 CRAZY|    113 615.155953584445      0.1421E-03  0.4656E-05  0.5000E-01
 CRAZY|    114 615.155953583494      0.1421E-03  0.4656E-05  0.5000E-01
 CRAZY|    115 615.155953582541      0.1421E-03  0.4656E-05  0.5000E-01
 CRAZY|    116 615.155953581588      0.1421E-03  0.4656E-05  0.5000E-01
 CRAZY|    117 615.155953580636      0.1421E-03  0.4656E-05  0.5000E-01
 CRAZY|    118 615.155953579684      0.1421E-03  0.4656E-05  0.5000E-01
 CRAZY|    119 615.155953578731      0.1421E-03  0.4656E-05  0.5000E-01
 CRAZY|    120 615.155953577779      0.1421E-03  0.4655E-05  0.5000E-01
 CRAZY|    121 615.155953576828      0.1421E-03  0.4655E-05  0.5000E-01
 CRAZY|    122 615.155953575877      0.1421E-03  0.4655E-05  0.5000E-01
 CRAZY|    123 615.155953574925      0.1421E-03  0.4655E-05  0.5000E-01
 CRAZY|    124 615.155953573973      0.1421E-03  0.4655E-05  0.5000E-01
 CRAZY|    125 615.155953573021      0.1421E-03  0.4655E-05  0.5000E-01
 CRAZY|    126 615.155953572069      0.1421E-03  0.4655E-05  0.5000E-01
 CRAZY|    127 615.155953571116      0.1421E-03  0.4655E-05  0.5000E-01
 CRAZY|    128 615.155953570164      0.1421E-03  0.4655E-05  0.5000E-01
 CRAZY|    129 615.155953569212      0.1421E-03  0.4654E-05  0.5000E-01
 CRAZY|    130 615.155953568261      0.1421E-03  0.4654E-05  0.5000E-01
 CRAZY|    131 615.155953567311      0.1421E-03  0.4654E-05  0.5000E-01
 CRAZY|    132 615.155953566360      0.1421E-03  0.4654E-05  0.5000E-01
 CRAZY|    133 615.155953565409      0.1421E-03  0.4654E-05  0.5000E-01
 CRAZY|    134 615.155953564457      0.1420E-03  0.4654E-05  0.5000E-01
 CRAZY|    135 615.155953563505      0.1420E-03  0.4654E-05  0.5000E-01
 CRAZY|    136 615.155953562554      0.1420E-03  0.4654E-05  0.5000E-01
 CRAZY|    137 615.155953561602      0.1420E-03  0.4653E-05  0.5000E-01
 CRAZY|    138 615.155953560653      0.1420E-03  0.4653E-05  0.5000E-01
 CRAZY|    139 615.155953559703      0.1420E-03  0.4653E-05  0.5000E-01
 CRAZY|    140 615.155953558752      0.1420E-03  0.4653E-05  0.5000E-01
 CRAZY|    141 615.155953557803      0.1420E-03  0.4653E-05  0.5000E-01
 CRAZY|    142 615.155953556853      0.1420E-03  0.4653E-05  0.5000E-01
 CRAZY|    143 615.155953555901      0.1420E-03  0.4653E-05  0.5000E-01
[...]
 CRAZY|   1857 613.802156800512      0.2038E-03  0.6712E-05  0.5000E-01
 CRAZY|   1858 613.802156798519      0.2038E-03  0.6712E-05  0.5000E-01
 CRAZY|   1859 613.802156796526      0.2038E-03  0.6712E-05  0.5000E-01
 CRAZY|   1860 613.802156794531      0.2038E-03  0.6713E-05  0.5000E-01
 CRAZY|   1861 613.802156792537      0.2038E-03  0.6713E-05  0.5000E-01
 CRAZY|   1862 613.802156790546      0.2038E-03  0.6713E-05  0.5000E-01
 CRAZY|   1863 613.802156788554      0.2038E-03  0.6713E-05  0.5000E-01
 CRAZY|   1864 613.802156786561      0.2038E-03  0.6713E-05  0.5000E-01
 CRAZY|   1865 613.802156784567      0.2038E-03  0.6713E-05  0.5000E-01
 CRAZY|   1866 613.802156782574      0.2039E-03  0.6713E-05  0.5000E-01
 CRAZY|   1867 613.802156780578      0.2039E-03  0.6714E-05  0.5000E-01
 CRAZY|   1868 613.802156778584      0.2039E-03  0.6714E-05  0.5000E-01
 CRAZY|   1869 613.802156776590      0.2039E-03  0.6714E-05  0.5000E-01
 CRAZY|   1870 613.802156774595      0.2039E-03  0.6714E-05  0.5000E-01
 CRAZY|   1871 613.802156772599      0.2039E-03  0.6714E-05  0.5000E-01
 CRAZY|   1872 613.802156770605      0.2039E-03  0.6714E-05  0.5000E-01
 CRAZY|   1873 613.802156768608      0.2039E-03  0.6714E-05  0.5000E-01
 CRAZY|   1874 613.802156766614      0.2039E-03  0.6715E-05  0.5000E-01
 CRAZY|   1875 613.802156764618      0.2039E-03  0.6715E-05  0.5000E-01
 CRAZY|   1876 613.802156762623      0.2039E-03  0.6715E-05  0.5000E-01
 CRAZY|   1877 613.802156760628      0.2039E-03  0.6715E-05  0.5000E-01
 CRAZY|   1878 613.802156758636      0.2039E-03  0.6715E-05  0.5000E-01
 CRAZY|   1879 613.802156756641      0.2039E-03  0.6715E-05  0.5000E-01
 CRAZY|   1880 613.802156754646      0.2039E-03  0.6715E-05  0.5000E-01
 CRAZY|   1881 613.802156752652      0.2039E-03  0.6715E-05  0.5000E-01
 CRAZY|   1882 613.802156750656      0.2039E-03  0.6716E-05  0.5000E-01
 CRAZY|   1883 613.802156748662      0.2039E-03  0.6716E-05  0.5000E-01
 CRAZY|   1884 613.802156746666      0.2039E-03  0.6716E-05  0.5000E-01
 CRAZY|   1885 613.802156744671      0.2039E-03  0.6716E-05  0.5000E-01
 CRAZY|   1886 613.802156742674      0.2039E-03  0.6716E-05  0.5000E-01
 CRAZY|   1887 613.802156740677      0.2039E-03  0.6716E-05  0.5000E-01
 CRAZY|   1888 613.802156738680      0.2039E-03  0.6716E-05  0.5000E-01
 CRAZY|   1889 613.802156736684      0.2039E-03  0.6717E-05  0.5000E-01
 CRAZY|   1890 613.802156734685      0.2040E-03  0.6717E-05  0.5000E-01
 CRAZY|   1891 613.802156732690      0.2040E-03  0.6717E-05  0.5000E-01
 CRAZY|   1892 613.802156730693      0.2040E-03  0.6717E-05  0.5000E-01
 CRAZY|   1893 613.802156728695      0.2040E-03  0.6717E-05  0.5000E-01
 CRAZY|   1894 613.802156726699      0.2040E-03  0.6717E-05  0.5000E-01
 CRAZY|   1895 613.802156724701      0.2040E-03  0.6717E-05  0.5000E-01
 CRAZY|   1896 613.802156722705      0.2040E-03  0.6718E-05  0.5000E-01
 CRAZY|   1897 613.802156720709      0.2040E-03  0.6718E-05  0.5000E-01
 CRAZY|   1898 613.802156718712      0.2040E-03  0.6718E-05  0.5000E-01
 CRAZY|   1899 613.802156716715      0.2040E-03  0.6718E-05  0.5000E-01
 CRAZY|   1900 613.802156714718      0.2040E-03  0.6718E-05  0.5000E-01
 CRAZY|   1901 613.802156712720      0.2040E-03  0.6718E-05  0.5000E-01
 CRAZY|   1902 613.802156710723      0.2040E-03  0.6718E-05  0.5000E-01
 CRAZY|   1903 613.802156708725      0.2040E-03  0.6719E-05  0.5000E-01
 CRAZY|   1904 613.802156706728      0.2040E-03  0.6719E-05  0.5000E-01
 CRAZY|   1905 613.802156704728      0.2040E-03  0.6719E-05  0.5000E-01
 CRAZY|   1906 613.802156702731      0.2040E-03  0.6719E-05  0.5000E-01
 CRAZY|   1907 613.802156700731      0.2040E-03  0.6719E-05  0.5000E-01
 CRAZY|   1908 613.802156698732      0.2040E-03  0.6719E-05  0.5000E-01
 CRAZY|   1909 613.802156696735      0.2040E-03  0.6719E-05  0.5000E-01
 CRAZY|   1910 613.802156694737      0.2040E-03  0.6719E-05  0.5000E-01
 CRAZY|   1911 613.802156692738      0.2040E-03  0.6720E-05  0.5000E-01
 CRAZY|   1912 613.802156690741      0.2040E-03  0.6720E-05  0.5000E-01
 CRAZY|   1913 613.802156688743      0.2041E-03  0.6720E-05  0.5000E-01
 CRAZY|   1914 613.802156686744      0.2041E-03  0.6720E-05  0.5000E-01
 CRAZY|   1915 613.802156684744      0.2041E-03  0.6720E-05  0.5000E-01
 CRAZY|   1916 613.802156682745      0.2041E-03  0.6720E-05  0.5000E-01
 CRAZY|   1917 613.802156680746      0.2041E-03  0.6720E-05  0.5000E-01
 CRAZY|   1918 613.802156678746      0.2041E-03  0.6721E-05  0.5000E-01
 CRAZY|   1919 613.802156676748      0.2041E-03  0.6721E-05  0.5000E-01
 CRAZY|   1920 613.802156674750      0.2041E-03  0.6721E-05  0.5000E-01
 CRAZY|   1921 613.802156672750      0.2041E-03  0.6721E-05  0.5000E-01
 CRAZY|   1922 613.802156670751      0.2041E-03  0.6721E-05  0.5000E-01
 CRAZY|   1923 613.802156668751      0.2041E-03  0.6721E-05  0.5000E-01
 CRAZY|   1924 613.802156666751      0.2041E-03  0.6721E-05  0.5000E-01
 CRAZY|   1925 613.802156664752      0.2041E-03  0.6722E-05  0.5000E-01
 CRAZY|   1926 613.802156662752      0.2041E-03  0.6722E-05  0.5000E-01
 CRAZY|   1927 613.802156660752      0.2041E-03  0.6722E-05  0.5000E-01
 CRAZY|   1928 613.802156658751      0.2041E-03  0.6722E-05  0.5000E-01
 CRAZY|   1929 613.802156656751      0.2041E-03  0.6722E-05  0.5000E-01
 CRAZY|   1930 613.802156654752      0.2041E-03  0.6722E-05  0.5000E-01
 CRAZY|   1931 613.802156652752      0.2041E-03  0.6722E-05  0.5000E-01
 CRAZY|   1932 613.802156650752      0.2041E-03  0.6722E-05  0.5000E-01
 CRAZY|   1933 613.802156648752      0.2041E-03  0.6723E-05  0.5000E-01
 CRAZY|   1934 613.802156646752      0.2041E-03  0.6723E-05  0.5000E-01
 CRAZY|   1935 613.802156644752      0.2041E-03  0.6723E-05  0.5000E-01
 CRAZY|   1936 613.802156642749      0.2041E-03  0.6723E-05  0.5000E-01
 CRAZY|   1937 613.802156640749      0.2042E-03  0.6723E-05  0.5000E-01
 CRAZY|   1938 613.802156638749      0.2042E-03  0.6723E-05  0.5000E-01
 CRAZY|   1939 613.802156636749      0.2042E-03  0.6723E-05  0.5000E-01
 CRAZY|   1940 613.802156634747      0.2042E-03  0.6724E-05  0.5000E-01
 CRAZY|   1941 613.802156632748      0.2042E-03  0.6724E-05  0.5000E-01
 CRAZY|   1942 613.802156630748      0.2042E-03  0.6724E-05  0.5000E-01
 CRAZY|   1943 613.802156628747      0.2042E-03  0.6724E-05  0.5000E-01
 CRAZY|   1944 613.802156626744      0.2042E-03  0.6724E-05  0.5000E-01
 CRAZY|   1945 613.802156624744      0.2042E-03  0.6724E-05  0.5000E-01
 CRAZY|   1946 613.802156622743      0.2042E-03  0.6724E-05  0.5000E-01
 CRAZY|   1947 613.802156620743      0.2042E-03  0.6725E-05  0.5000E-01
 CRAZY|   1948 613.802156618741      0.2042E-03  0.6725E-05  0.5000E-01
 CRAZY|   1949 613.802156616737      0.2042E-03  0.6725E-05  0.5000E-01
 CRAZY|   1950 613.802156614736      0.2042E-03  0.6725E-05  0.5000E-01
 CRAZY|   1951 613.802156612735      0.2042E-03  0.6725E-05  0.5000E-01
 CRAZY|   1952 613.802156610733      0.2042E-03  0.6725E-05  0.5000E-01
 CRAZY|   1953 613.802156608732      0.2042E-03  0.6725E-05  0.5000E-01
 CRAZY|   1954 613.802156606730      0.2042E-03  0.6725E-05  0.5000E-01
 CRAZY|   1955 613.802156604726      0.2042E-03  0.6726E-05  0.5000E-01
 CRAZY|   1956 613.802156602724      0.2042E-03  0.6726E-05  0.5000E-01
 CRAZY|   1957 613.802156600722      0.2042E-03  0.6726E-05  0.5000E-01
 CRAZY|   1958 613.802156598721      0.2042E-03  0.6726E-05  0.5000E-01
 CRAZY|   1959 613.802156596718      0.2042E-03  0.6726E-05  0.5000E-01
 CRAZY|   1960 613.802156594716      0.2042E-03  0.6726E-05  0.5000E-01
 CRAZY|   1961 613.802156592715      0.2043E-03  0.6726E-05  0.5000E-01
 CRAZY|   1962 613.802156590712      0.2043E-03  0.6727E-05  0.5000E-01
 CRAZY|   1963 613.802156588709      0.2043E-03  0.6727E-05  0.5000E-01
 CRAZY|   1964 613.802156586705      0.2043E-03  0.6727E-05  0.5000E-01
 CRAZY|   1965 613.802156584702      0.2043E-03  0.6727E-05  0.5000E-01
 CRAZY|   1966 613.802156582700      0.2043E-03  0.6727E-05  0.5000E-01
 CRAZY|   1967 613.802156580697      0.2043E-03  0.6727E-05  0.5000E-01
 CRAZY|   1968 613.802156578695      0.2043E-03  0.6727E-05  0.5000E-01
 CRAZY|   1969 613.802156576690      0.2043E-03  0.6728E-05  0.5000E-01
 CRAZY|   1970 613.802156574685      0.2043E-03  0.6728E-05  0.5000E-01
 CRAZY|   1971 613.802156572680      0.2043E-03  0.6728E-05  0.5000E-01
 CRAZY|   1972 613.802156570676      0.2043E-03  0.6728E-05  0.5000E-01
 CRAZY|   1973 613.802156568673      0.2043E-03  0.6728E-05  0.5000E-01
 CRAZY|   1974 613.802156566669      0.2043E-03  0.6728E-05  0.5000E-01
 CRAZY|   1975 613.802156564666      0.2043E-03  0.6728E-05  0.5000E-01
 CRAZY|   1976 613.802156562660      0.2043E-03  0.6728E-05  0.5000E-01
 CRAZY|   1977 613.802156560657      0.2043E-03  0.6729E-05  0.5000E-01
 CRAZY|   1978 613.802156558654      0.2043E-03  0.6729E-05  0.5000E-01
 CRAZY|   1979 613.802156556649      0.2043E-03  0.6729E-05  0.5000E-01
 CRAZY|   1980 613.802156554645      0.2043E-03  0.6729E-05  0.5000E-01
 CRAZY|   1981 613.802156552641      0.2043E-03  0.6729E-05  0.5000E-01
 CRAZY|   1982 613.802156550635      0.2043E-03  0.6729E-05  0.5000E-01
 CRAZY|   1983 613.802156548631      0.2043E-03  0.6729E-05  0.5000E-01
 CRAZY|   1984 613.802156546624      0.2044E-03  0.6730E-05  0.5000E-01
 CRAZY|   1985 613.802156544618      0.2044E-03  0.6730E-05  0.5000E-01
 CRAZY|   1986 613.802156542613      0.2044E-03  0.6730E-05  0.5000E-01
 CRAZY|   1987 613.802156540607      0.2044E-03  0.6730E-05  0.5000E-01
 CRAZY|   1988 613.802156538604      0.2044E-03  0.6730E-05  0.5000E-01
 CRAZY|   1989 613.802156536596      0.2044E-03  0.6730E-05  0.5000E-01
 CRAZY|   1990 613.802156534592      0.2044E-03  0.6730E-05  0.5000E-01
 CRAZY|   1991 613.802156532587      0.2044E-03  0.6731E-05  0.5000E-01
 CRAZY|   1992 613.802156530584      0.2044E-03  0.6731E-05  0.5000E-01
 CRAZY|   1993 613.802156528577      0.2044E-03  0.6731E-05  0.5000E-01
 CRAZY|   1994 613.802156526571      0.2044E-03  0.6731E-05  0.5000E-01
 CRAZY|   1995 613.802156524564      0.2044E-03  0.6731E-05  0.5000E-01
 CRAZY|   1996 613.802156522558      0.2044E-03  0.6731E-05  0.5000E-01
 CRAZY|   1997 613.802156520550      0.2044E-03  0.6731E-05  0.5000E-01
 CRAZY|   1998 613.802156518542      0.2044E-03  0.6731E-05  0.5000E-01
 CRAZY|   1999 613.802156516536      0.2044E-03  0.6732E-05  0.5000E-01
 CRAZY|   2000 613.802156514529      0.2044E-03  0.6732E-05  0.5000E-01
 Crazy Wannier localization not converged after   2000 iterations, switching to jacobi rotations
         Localization by iterative Jacobi rotation
                      Iteration           Tolerance   Time 
                            100          0.4016E-03   0.000
                            200          0.4031E-03   0.000
                            300          0.4046E-03   0.000
                            400          0.4060E-03   0.000
                            500          0.4074E-03   0.000
                            600          0.4087E-03   0.000
                            700          0.4099E-03   0.000
                            800          0.4111E-03   0.000
                            900          0.4123E-03   0.000
                           1000          0.4134E-03   0.000
                           1100          0.4144E-03   0.000
                           1200          0.4154E-03   0.000
                           1300          0.4163E-03   0.000
                           1400          0.4172E-03   0.000
                           1500          0.4180E-03   0.000
                           1600          0.4187E-03   0.000
                           1700          0.4194E-03   0.000
                           1800          0.4200E-03   0.000
                           1900          0.4206E-03   0.000
                           2000          0.4211E-03   0.000
               Localization  for spin   1 converged in   2000 iterations
          Spread Functional     sum_in -w_i ln(|z_in|^2)    sum_in w_i(1-|z_in|^2)
    Total Spread (Berry) :                  16.0353642963       15.5477900358

  Electronic density on regular grids:        -16.0000000093       -0.0000000093
  Core density on regular grids:               16.0000000000        0.0000000000
  Total charge density on r-space grids:       -0.0000000093
  Total charge density g-space grids:          -0.0000000093


 ENERGY| Total FORCE_EVAL ( QS ) energy (a.u.):              -37.767200349548787


 -------------------------------------------------------------------------------
 ----                             MULTIGRID INFO                            ----
 -------------------------------------------------------------------------------
 count for grid        1:          24216          cutoff [a.u.]          175.00
 count for grid        2:          15952          cutoff [a.u.]           58.33
 count for grid        3:          11592          cutoff [a.u.]           19.44
 count for grid        4:           4728          cutoff [a.u.]            6.48
 count for grid        5:            524          cutoff [a.u.]            2.16
 total gridlevel count  :          57012

 -------------------------------------------------------------------------------
 -                                                                             -
 -                         MESSAGE PASSING PERFORMANCE                         -
 -                                                                             -
 -------------------------------------------------------------------------------

 ROUTINE             CALLS  TOT TIME [s]  AVE VOLUME [Bytes]  PERFORMANCE [MB/s]
 MP_Group                6         0.000
 MP_Bcast              339         0.001                 10.                6.77
 MP_Allreduce        24471        17.538                 27.                0.04
 MP_Sync                 5         0.000
 -------------------------------------------------------------------------------


 -------------------------------------------------------------------------------
 -                                                                             -
 -                           R E F E R E N C E S                               -
 -                                                                             -
 -------------------------------------------------------------------------------
 
 CP2K version 2.2.107 (Development Version), the CP2K developers group (2011).
 CP2K is freely available from http://cp2k.berlios.de/ .

 Grimme, S. 
 JOURNAL OF COMPUTATIONAL CHEMISTRY, 27 (15), 1787-1799 (2006). 
 Semiempirical GGA-type density functional constructed with a long-range
 dispersion correction.
 http://dx.doi.org/10.1002/jcc.20495


 Krack, M. 
 THEORETICAL CHEMISTRY ACCOUNTS, 114 (1-3), 145-152 (2005). 
 Pseudopotentials for H to Kr optimized for gradient-corrected
 exchange-correlation functionals.
 http://dx.doi.org/10.1007/s00214-005-0655-y


 VandeVondele, J; Krack, M; Mohamed, F; Parrinello, M; Chassaing, T;
 Hutter, J. COMPUTER PHYSICS COMMUNICATIONS, 167 (2), 103-128 (2005). 
 QUICKSTEP: Fast and accurate density functional calculations using a
 mixed Gaussian and plane waves approach.
 http://dx.doi.org/10.1016/j.cpc.2004.12.014


 Frigo, M; Johnson, SG. 
 PROCEEDINGS OF THE IEEE, 93 (2), 216-231 (2005). 
 The design and implementation of FFTW3.
 http://dx.doi.org/10.1109/JPROC.2004.840301


 VandeVondele, J; Hutter, J. 
 JOURNAL OF CHEMICAL PHYSICS, 118 (10), 4365-4369 (2003). 
 An efficient orbital transformation method for electronic structure
 calculations.
 http://dx.doi.org/10.1063/1.1543154


 Martyna, GJ; Tuckerman, ME. 
 JOURNAL OF CHEMICAL PHYSICS, 110 (6), 2810-2821 (1999). 
 A reciprocal space based method for treating long range interactions in
 ab initio and force-field-based calculations in clusters.
 http://dx.doi.org/10.1063/1.477923


 Hartwigsen, C; Goedecker, S; Hutter, J. 
 PHYSICAL REVIEW B, 58 (7), 3641-3662 (1998). 
 Relativistic separable dual-space Gaussian pseudopotentials from H to Rn.
 http://dx.doi.org/10.1103/PhysRevB.58.3641


 Lippert, G; Hutter, J; Parrinello, M. 
 MOLECULAR PHYSICS, 92 (3), 477-487 (1997). 
 A hybrid Gaussian and plane wave density functional scheme.
 http://dx.doi.org/10.1080/002689797170220


 Perdew, JP; Burke, K; Ernzerhof, M. 
 PHYSICAL REVIEW LETTERS, 77 (18), 3865-3868 (1996). 
 Generalized gradient approximation made simple.
 http://dx.doi.org/10.1103/PhysRevLett.77.3865


 Goedecker, S; Teter, M; Hutter, J. 
 PHYSICAL REVIEW B, 54 (3), 1703-1710 (1996). 
 Separable dual-space Gaussian pseudopotentials.
 http://dx.doi.org/10.1103/PhysRevB.54.1703


 -------------------------------------------------------------------------------
 -                                                                             -
 -                                T I M I N G                                  -
 -                                                                             -
 -------------------------------------------------------------------------------
 SUBROUTINE                       CALLS  ASD         SELF TIME        TOTAL TIME
                                              AVERAGE  MAXIMUM  AVERAGE  MAXIMUM
 CP2K                                 1  1.0    0.187    0.187  241.112  241.112
 rep_env_calc_e_f                     4  2.0    0.017    0.017  238.002  238.002
 qs_forces                            4  3.0    0.000    0.000  220.502  220.502
 qs_energies_scf                      4  4.0    0.088    0.088  208.475  208.475
 scf_env_do_scf                       4  5.0    0.008    0.008  198.589  198.589
 qs_ks_build_kohn_sham_matrix        54  7.8    1.119    1.119  180.324  180.324
 scf_env_do_scf_inner_loop           50  6.0    0.033    0.033  179.452  179.452
 qs_ks_update_qs_env                 55  7.0    0.001    0.001  168.333  168.333
 fft_wrap_pw1pw2                   1031 10.6    0.017    0.017  143.383  143.383
 qs_vxc_create                       54  8.8    0.041    0.041  140.943  140.943
 xc_vxc_pw_create                    54  9.8    2.290    2.290  140.902  140.902
 fft_wrap_pw1pw2_180                598 11.7    7.837    7.837  137.529  137.529
 fft3d_s                           1033 12.6  102.240  102.240  102.242  102.242
 xc_rho_set_and_dset_create          54 10.8    3.186    3.186   81.889   81.889
 xc_functional_eval                  54 11.8    0.027    0.027   34.822   34.822
 pbe_lda_eval                        54 12.8   34.795   34.795   34.795   34.795
 qs_rho_update_rho                   54  7.1    0.000    0.000   32.026   32.026
 calculate_rho_elec                  54  8.1    1.390    1.390   32.026   32.026
 density_rs2pw                       54  9.1    0.056    0.056   29.777   29.777
 init_scf_loop                        5  6.0    0.053    0.053   19.128   19.128
 integrate_v_rspace                  54  8.8    1.086    1.086   18.331   18.331
 rep_env_sync                         7  2.6   17.514   17.514   17.514   17.514
 potential_pw2rs                     54  9.8    0.175    0.175   17.236   17.236
 pw_gather_s                        491 12.4   16.778   16.778   16.778   16.778
 pw_scatter_s                       540 12.8   16.082   16.082   16.082   16.082
 qs_ks_update_qs_env_forces           4  4.0    0.000    0.000   11.995   11.995
 pw_derive                          324 11.3    8.802    8.802    8.802    8.802
 pw_copy                            648 10.8    6.534    6.534    6.534    6.534
 pw_poisson_solve                    54  8.8    2.817    2.817    5.692    5.692
 -------------------------------------------------------------------------------

  **** **** ******  **  PROGRAM ENDED AT                 2011-08-14 10:30:32.088
 ***** ** ***  *** **   PROGRAM RAN ON                                  r11i3n15
 **    ****   ******    PROGRAM RAN BY                                          
 ***** **    ** ** **   PROGRAM PROCESS ID                                   707
  **** **  *******  **  PROGRAM STOPPED IN   /usr/local/u/jmlarkin/CP2K/CdSe/vib
