
  **** **** ******  **  PROGRAM STARTED AT               2011-08-14 10:26:23.936
 ***** ** ***  *** **   PROGRAM STARTED ON                              r11i3n15
 **    ****   ******    PROGRAM STARTED BY                                      
 ***** **    ** ** **   PROGRAM PROCESS ID                                   704
  **** **  *******  **  PROGRAM STARTED IN   /usr/local/u/jmlarkin/CP2K/CdSe/vib

 CP2K| version string:                CP2K version 2.2.107 (Development Version)
 CP2K| is freely available from                          http://cp2k.berlios.de/
 CP2K| Program compiled at                          Tue Jun  7 13:15:52 CDT 2011
 CP2K| Program compiled on                                             diamond01
 CP2K| Program compiled for                                   Linux-x86-64-intel
 CP2K| Last CVS entry                 cp2k_info.F/1.511/Wed Jan 19 04:35:13 2011
 CP2K| Input file name                                              temp-r-3.inp
 
 GLOBAL| Force Environment number                                              1
 GLOBAL| Basis set file name            /usr/local/u/jmlarkin/CP2K/CdSe/vib/GTH_
 GLOBAL| Geminal file name                                         BASIS_GEMINAL
 GLOBAL| Potential file name            /usr/local/u/jmlarkin/CP2K/CdSe/vib/POTE
 GLOBAL| MM Potential file name                                     MM_POTENTIAL
 GLOBAL| Coordinate file name                                      __STD_INPUT__
 GLOBAL| Method name                                                        CP2K
 GLOBAL| Project name                                                   temp-r-3
 GLOBAL| Preferred FFT library                                             FFTW3
 GLOBAL| Run type                                           VIBRATIONAL_ANALYSIS
 GLOBAL| All-to-all communication in single precision                          F
 GLOBAL| FFTs using library dependent lengths                                  F
 GLOBAL| Global print level                                               MEDIUM
 GLOBAL| Total number of message passing processes                             1
 GLOBAL| Number of threads for this process                                    1
 GLOBAL| This output is from process                                           0

 MEMORY| system memory details [Kb]
 MEMORY|                        rank 0           min           max       average
 MEMORY| MemTotal                    0             0             0             0
 MEMORY| MemFree                     0             0             0             0
 MEMORY| Buffers                     0             0             0             0
 MEMORY| Cached                      0             0             0             0
 MEMORY| Slab                        0             0             0             0
 MEMORY| SReclaimable                0             0             0             0
 MEMORY| MemLikelyFree               0             0             0             0

 WARNING : FFT library FFTW3 is not available  Trying FFTSG as a default

 *** Fundamental physical constants (SI units) ***

 *** Literature: B. J. Mohr and B. N. Taylor,
 ***             CODATA recommended values of the fundamental physical
 ***             constants: 2006, Web Version 5.1
 ***             http://physics.nist.gov/constants

 Speed of light in vacuum [m/s]                             2.99792458000000E+08
 Magnetic constant or permeability of vacuum [N/A**2]       1.25663706143592E-06
 Electric constant or permittivity of vacuum [F/m]          8.85418781762039E-12
 Planck constant (h) [J*s]                                  6.62606896000000E-34
 Planck constant (h-bar) [J*s]                              1.05457162825177E-34
 Elementary charge [C]                                      1.60217648700000E-19
 Electron mass [kg]                                         9.10938215000000E-31
 Electron g factor [ ]                                     -2.00231930436220E+00
 Proton mass [kg]                                           1.67262163700000E-27
 Fine-structure constant                                    7.29735253760000E-03
 Rydberg constant [1/m]                                     1.09737315685270E+07
 Avogrado constant [1/mol]                                  6.02214179000000E+23
 Boltzmann constant [J/K]                                   1.38065040000000E-23
 Atomic mass unit [kg]                                      1.66053878200000E-27
 Bohr radius [m]                                            5.29177208590000E-11

 *** Conversion factors ***

 [u] -> [a.u.]                                              1.82288848426455E+03
 [Angstrom] -> [Bohr] = [a.u.]                              1.88972613288564E+00
 [a.u.] = [Bohr] -> [Angstrom]                              5.29177208590000E-01
 [a.u.] -> [s]                                              2.41888432650478E-17
 [a.u.] -> [fs]                                             2.41888432650478E-02
 [a.u.] -> [J]                                              4.35974393937059E-18
 [a.u.] -> [K]                                              3.15774647902944E+05
 [a.u.] -> [kJ/mol]                                         2.62549961709828E+03
 [a.u.] -> [kcal/mol]                                       6.27509468713739E+02
 [a.u.] -> [Pa]                                             2.94210107994716E+13
 [a.u.] -> [bar]                                            2.94210107994716E+08
 [a.u.] -> [atm]                                            2.90362800883016E+08
 [a.u.] -> [eV]                                             2.72113838565563E+01
 [a.u.] -> [Hz]                                             6.57968392072181E+15
 [a.u.] -> [1/cm] (wave numbers)                            2.19474631370540E+05
 [a.u./Bohr**2] -> [1/cm]                                   5.14048714338585E+03
 

 CELL| Volume [angstrom^3]:                                             1300.000
 CELL| Vector a [angstrom]:      10.000     0.000     0.000    |a| =      10.000
 CELL| Vector b [angstrom]:       0.000    10.000     0.000    |b| =      10.000
 CELL| Vector c [angstrom]:       0.000     0.000    13.000    |c| =      13.000
 CELL| Angle (b,c), alpha [degree]:                                       90.000
 CELL| Angle (a,c), beta  [degree]:                                       90.000
 CELL| Angle (a,b), gamma [degree]:                                       90.000

 CELL_REF| Volume [angstrom^3]:                                         1300.000
 CELL_REF| Vector a [angstrom    10.000     0.000     0.000    |a| =      10.000
 CELL_REF| Vector b [angstrom     0.000    10.000     0.000    |b| =      10.000
 CELL_REF| Vector c [angstrom     0.000     0.000    13.000    |c| =      13.000
 CELL_REF| Angle (b,c), alpha [degree]:                                   90.000
 CELL_REF| Angle (a,c), beta  [degree]:                                   90.000
 CELL_REF| Angle (a,b), gamma [degree]:                                   90.000

 CELL_TOP| Volume [angstrom^3]:                                         1300.000
 CELL_TOP| Vector a [angstrom    10.000     0.000     0.000    |a| =      10.000
 CELL_TOP| Vector b [angstrom     0.000    10.000     0.000    |b| =      10.000
 CELL_TOP| Vector c [angstrom     0.000     0.000    13.000    |c| =      13.000
 CELL_TOP| Angle (b,c), alpha [degree]:                                   90.000
 CELL_TOP| Angle (a,c), beta  [degree]:                                   90.000
 CELL_TOP| Angle (a,b), gamma [degree]:                                   90.000
 
 GENERATE|  Preliminary Number of Bonds generated:                             0
 GENERATE|  Achieved consistency in connectivity generation.
 GENERATE|  Number of Bonds generated:                                         0
 GENERATE|  Preliminary Number of Bends generated:                             0
 GENERATE|  Number of Bends generated:                                         0
 GENERATE|  Number of UB generated:                                            0
 GENERATE|  Preliminary Number of Torsions generated:                          0
 GENERATE|  Number of Torsions generated:                                      0
 GENERATE|  Number of Impropers generated:                                     0
 GENERATE|  Number of 1-4 interactions generated:                              0

 *******************************************************************************
 *******************************************************************************
 **                                                                           **
 **     #####                         ##              ##                      **
 **    ##   ##            ##          ##              ##                      **
 **   ##     ##                       ##            ######                    **
 **   ##     ##  ##   ##  ##   #####  ##  ##   ####   ##    #####    #####    **
 **   ##     ##  ##   ##  ##  ##      ## ##   ##      ##   ##   ##  ##   ##   **
 **   ##  ## ##  ##   ##  ##  ##      ####     ###    ##   ######   ######    **
 **    ##  ###   ##   ##  ##  ##      ## ##      ##   ##   ##       ##        **
 **     #######   #####   ##   #####  ##  ##  ####    ##    #####   ##        **
 **           ##                                                    ##        **
 **                                                                           **
 **                                                ... make the atoms dance   **
 **                                                                           **
 **            Copyright (C) by CP2K Developers Group (2000 - 2011)           **
 **                                                                           **
 *******************************************************************************

 DFT| Spin restricted Kohn-Sham (RKS) calculation                            RKS
 DFT| Multiplicity                                                             1
 DFT| Number of spin states                                                    1
 DFT| Charge                                                                   0
 DFT| Self-interaction correction (SIC)                                       NO
 DFT| Cutoffs: density                                              1.000000E-10
 DFT|          gradient                                             1.000000E-10
 DFT|          tau                                                  1.000000E-10
 DFT|          cutoff_smoothing_range                               0.000000E+00
 DFT| XC density smoothing                                                  NONE
 DFT| XC derivatives                                                          PW
 FUNCTIONAL| ROUTINE=NEW
 FUNCTIONAL| PBE:
 FUNCTIONAL| J.P.Perdew, K.Burke, M.Ernzerhof, Phys. Rev. Letter, vol. 77, n 18,
 FUNCTIONAL|  pp. 3865-3868, (1996){spin unpolarized}
 vdW POTENTIAL|                                                   Pair Potential
 vdW POTENTIAL|                   Potential Form: S. Grimme, JCC 27: 1787 (2006)
 vdW POTENTIAL|                   Cutoff Radius [Bohr]:                    20.00
 vdW POTENTIAL|                   Scaling Factor:                         0.7500
 vdW POTENTIAL|                   Exp Prefactor for Damping:                20.0
 vdW PARAMETER|  Atom=O    C6[J*nm^6*mol^-1]=  0.7000         r(vdW)[A]=  1.3420
 vdW PARAMETER|  Atom=C    C6[J*nm^6*mol^-1]=  1.7500         r(vdW)[A]=  1.4520

 QS| Method:                                                                 GPW
 QS| Density plane wave grid type                        NON-SPHERICAL FULLSPACE
 QS| Number of grid levels:                                                    5
 QS| Density cutoff [a.u.]:                                                175.0
 QS| Multi grid cutoff [a.u.]: 1) grid level                               175.0
 QS|                           2) grid level                                58.3
 QS|                           3) grid level                                19.4
 QS|                           4) grid level                                 6.5
 QS|                           5) grid level                                 2.2
 QS| Grid level progression factor:                                          3.0
 QS| Relative density cutoff [a.u.]:                                        15.0
 QS| Consistent realspace mapping and integration 
 QS| Interaction thresholds: eps_pgf_orb:                                1.0E-06
 QS|                         eps_filter_matrix:                          0.0E+00
 QS|                         eps_core_charge:                            1.0E-14
 QS|                         eps_rho_gspace:                             1.0E-12
 QS|                         eps_rho_rspace:                             1.0E-12
 QS|                         eps_gvg_rspace:                             1.0E-06
 QS|                         eps_ppl:                                    1.0E-02
 QS|                         eps_ppnl:                                   1.0E-08


 ATOMIC KIND INFORMATION

  1. Atomic kind: O                                     Number of atoms:       2

     Orbital basis set information for                                 QZV2P-GTH

       Number of orbital shell sets:                                           2
       Number of orbital shells:                                              10
       Number of primitive Cartesian functions:                                8
       Number of Cartesian basis functions:                                   28
       Number of spherical basis functions:                                   26

       Normalised Cartesian orbitals:

                        Set   Shell   Orbital            Exponent    Coefficient

                          1       1    2s               11.829868      -0.299448
                                                         4.932631      -0.313061
                                                         1.931300       0.178604
                                                         0.772400       0.305726
                                                         0.297633       0.124142
                                                         0.107006       0.008000

                          1       2    3s               11.829868       0.000000
                                                         4.932631       0.000000
                                                         1.931300       0.000000
                                                         0.772400       0.587208
                                                         0.297633       0.000000
                                                         0.107006       0.000000

                          1       3    4s               11.829868       0.000000
                                                         4.932631       0.000000
                                                         1.931300       0.000000
                                                         0.772400       0.000000
                                                         0.297633       0.287191
                                                         0.107006       0.000000

                          1       4    5s               11.829868       0.000000
                                                         4.932631       0.000000
                                                         1.931300       0.000000
                                                         0.772400       0.000000
                                                         0.297633       0.000000
                                                         0.107006       0.133342

                          1       5    3px              11.829868       1.219605
                                                         4.932631       1.393422
                                                         1.931300       0.888549
                                                         0.772400       0.378112
                                                         0.297633       0.103178
                                                         0.107006       0.011555
                          1       5    3py              11.829868       1.219605
                                                         4.932631       1.393422
                                                         1.931300       0.888549
                                                         0.772400       0.378112
                                                         0.297633       0.103178
                                                         0.107006       0.011555
                          1       5    3pz              11.829868       1.219605
                                                         4.932631       1.393422
                                                         1.931300       0.888549
                                                         0.772400       0.378112
                                                         0.297633       0.103178
                                                         0.107006       0.011555

                          1       6    4px              11.829868       0.000000
                                                         4.932631       0.000000
                                                         1.931300       0.000000
                                                         0.772400       1.032151
                                                         0.297633       0.000000
                                                         0.107006       0.000000
                          1       6    4py              11.829868       0.000000
                                                         4.932631       0.000000
                                                         1.931300       0.000000
                                                         0.772400       1.032151
                                                         0.297633       0.000000
                                                         0.107006       0.000000
                          1       6    4pz              11.829868       0.000000
                                                         4.932631       0.000000
                                                         1.931300       0.000000
                                                         0.772400       1.032151
                                                         0.297633       0.000000
                                                         0.107006       0.000000

                          1       7    5px              11.829868       0.000000
                                                         4.932631       0.000000
                                                         1.931300       0.000000
                                                         0.772400       0.000000
                                                         0.297633       0.313359
                                                         0.107006       0.000000
                          1       7    5py              11.829868       0.000000
                                                         4.932631       0.000000
                                                         1.931300       0.000000
                                                         0.772400       0.000000
                                                         0.297633       0.313359
                                                         0.107006       0.000000
                          1       7    5pz              11.829868       0.000000
                                                         4.932631       0.000000
                                                         1.931300       0.000000
                                                         0.772400       0.000000
                                                         0.297633       0.313359
                                                         0.107006       0.000000

                          1       8    6px              11.829868       0.000000
                                                         4.932631       0.000000
                                                         1.931300       0.000000
                                                         0.772400       0.000000
                                                         0.297633       0.000000
                                                         0.107006       0.087237
                          1       8    6py              11.829868       0.000000
                                                         4.932631       0.000000
                                                         1.931300       0.000000
                                                         0.772400       0.000000
                                                         0.297633       0.000000
                                                         0.107006       0.087237
                          1       8    6pz              11.829868       0.000000
                                                         4.932631       0.000000
                                                         1.931300       0.000000
                                                         0.772400       0.000000
                                                         0.297633       0.000000
                                                         0.107006       0.087237

                          2       1    3dx2              2.314000       7.145709
                                                         0.645000       0.000000
                          2       1    3dxy              2.314000      12.376731
                                                         0.645000       0.000000
                          2       1    3dxz              2.314000      12.376731
                                                         0.645000       0.000000
                          2       1    3dy2              2.314000       7.145709
                                                         0.645000       0.000000
                          2       1    3dyz              2.314000      12.376731
                                                         0.645000       0.000000
                          2       1    3dz2              2.314000       7.145709
                                                         0.645000       0.000000

                          2       2    4dx2              2.314000       0.000000
                                                         0.645000       0.764080
                          2       2    4dxy              2.314000       0.000000
                                                         0.645000       1.323426
                          2       2    4dxz              2.314000       0.000000
                                                         0.645000       1.323426
                          2       2    4dy2              2.314000       0.000000
                                                         0.645000       0.764080
                          2       2    4dyz              2.314000       0.000000
                                                         0.645000       1.323426
                          2       2    4dz2              2.314000       0.000000
                                                         0.645000       0.764080

     Potential information for                                        GTH-PBE-q6

       Description:                       Goedecker-Teter-Hutter pseudopotential
                                           Goedecker et al., PRB 54, 1703 (1996)
                                          Hartwigsen et al., PRB 58, 3641 (1998)
                                                      Krack, TCA 114, 145 (2005)

       Gaussian exponent of the core charge distribution:               8.360253
       Electronic configuration (s p d ...):                               2   4

       Parameters of the local part of the GTH pseudopotential:

                          rloc        C1          C2          C3          C4
                        0.244554  -16.667215    2.487311

       Parameters of the non-local part of the GTH pseudopotential:

                   l      r(l)      h(i,j,l)

                   0    0.220956   18.337458
                   1    0.211332

  2. Atomic kind: C                                     Number of atoms:       1

     Orbital basis set information for                                 QZV2P-GTH

       Number of orbital shell sets:                                           2
       Number of orbital shells:                                              10
       Number of primitive Cartesian functions:                                8
       Number of Cartesian basis functions:                                   28
       Number of spherical basis functions:                                   26

       Normalised Cartesian orbitals:

                        Set   Shell   Orbital            Exponent    Coefficient

                          1       1    2s                6.211790      -0.181428
                                                         2.606342      -0.189726
                                                         1.011026       0.098111
                                                         0.409977       0.189293
                                                         0.161541       0.080390
                                                         0.059735       0.005156

                          1       2    3s                6.211790       0.000000
                                                         2.606342       0.000000
                                                         1.011026       0.000000
                                                         0.409977       0.365157
                                                         0.161541       0.000000
                                                         0.059735       0.000000

                          1       3    4s                6.211790       0.000000
                                                         2.606342       0.000000
                                                         1.011026       0.000000
                                                         0.409977       0.000000
                                                         0.161541       0.181603
                                                         0.059735       0.000000

                          1       4    5s                6.211790       0.000000
                                                         2.606342       0.000000
                                                         1.011026       0.000000
                                                         0.409977       0.000000
                                                         0.161541       0.000000
                                                         0.059735       0.086116

                          1       5    3px               6.211790       0.455098
                                                         2.606342       0.567807
                                                         1.011026       0.369480
                                                         0.409977       0.170387
                                                         0.161541       0.050941
                                                         0.059735       0.005893
                          1       5    3py               6.211790       0.455098
                                                         2.606342       0.567807
                                                         1.011026       0.369480
                                                         0.409977       0.170387
                                                         0.161541       0.050941
                                                         0.059735       0.005893
                          1       5    3pz               6.211790       0.455098
                                                         2.606342       0.567807
                                                         1.011026       0.369480
                                                         0.409977       0.170387
                                                         0.161541       0.050941
                                                         0.059735       0.005893

                          1       6    4px               6.211790       0.000000
                                                         2.606342       0.000000
                                                         1.011026       0.000000
                                                         0.409977       0.467616
                                                         0.161541       0.000000
                                                         0.059735       0.000000
                          1       6    4py               6.211790       0.000000
                                                         2.606342       0.000000
                                                         1.011026       0.000000
                                                         0.409977       0.467616
                                                         0.161541       0.000000
                                                         0.059735       0.000000
                          1       6    4pz               6.211790       0.000000
                                                         2.606342       0.000000
                                                         1.011026       0.000000
                                                         0.409977       0.467616
                                                         0.161541       0.000000
                                                         0.059735       0.000000

                          1       7    5px               6.211790       0.000000
                                                         2.606342       0.000000
                                                         1.011026       0.000000
                                                         0.409977       0.000000
                                                         0.161541       0.145980
                                                         0.059735       0.000000
                          1       7    5py               6.211790       0.000000
                                                         2.606342       0.000000
                                                         1.011026       0.000000
                                                         0.409977       0.000000
                                                         0.161541       0.145980
                                                         0.059735       0.000000
                          1       7    5pz               6.211790       0.000000
                                                         2.606342       0.000000
                                                         1.011026       0.000000
                                                         0.409977       0.000000
                                                         0.161541       0.145980
                                                         0.059735       0.000000

                          1       8    6px               6.211790       0.000000
                                                         2.606342       0.000000
                                                         1.011026       0.000000
                                                         0.409977       0.000000
                                                         0.161541       0.000000
                                                         0.059735       0.042095
                          1       8    6py               6.211790       0.000000
                                                         2.606342       0.000000
                                                         1.011026       0.000000
                                                         0.409977       0.000000
                                                         0.161541       0.000000
                                                         0.059735       0.042095
                          1       8    6pz               6.211790       0.000000
                                                         2.606342       0.000000
                                                         1.011026       0.000000
                                                         0.409977       0.000000
                                                         0.161541       0.000000
                                                         0.059735       0.042095

                          2       1    3dx2              1.097000       1.935401
                                                         0.318000       0.000000
                          2       1    3dxy              1.097000       3.352214
                                                         0.318000       0.000000
                          2       1    3dxz              1.097000       3.352214
                                                         0.318000       0.000000
                          2       1    3dy2              1.097000       1.935401
                                                         0.318000       0.000000
                          2       1    3dyz              1.097000       3.352214
                                                         0.318000       0.000000
                          2       1    3dz2              1.097000       1.935401
                                                         0.318000       0.000000

                          2       2    4dx2              1.097000       0.000000
                                                         0.318000       0.221644
                          2       2    4dxy              1.097000       0.000000
                                                         0.318000       0.383899
                          2       2    4dxz              1.097000       0.000000
                                                         0.318000       0.383899
                          2       2    4dy2              1.097000       0.000000
                                                         0.318000       0.221644
                          2       2    4dyz              1.097000       0.000000
                                                         0.318000       0.383899
                          2       2    4dz2              1.097000       0.000000
                                                         0.318000       0.221644

     Potential information for                                        GTH-PBE-q4

       Description:                       Goedecker-Teter-Hutter pseudopotential
                                           Goedecker et al., PRB 54, 1703 (1996)
                                          Hartwigsen et al., PRB 58, 3641 (1998)
                                                      Krack, TCA 114, 145 (2005)

       Gaussian exponent of the core charge distribution:               4.364419
       Electronic configuration (s p d ...):                               2   2

       Parameters of the local part of the GTH pseudopotential:

                          rloc        C1          C2          C3          C4
                        0.338471   -8.803674    1.339211

       Parameters of the non-local part of the GTH pseudopotential:

                   l      r(l)      h(i,j,l)

                   0    0.302576    9.622487
                   1    0.291507


 MOLECULE KIND INFORMATION


 All atoms are their own molecule, skipping detailed information


 TOTAL NUMBERS AND MAXIMUM NUMBERS

  Total number of            - Atomic kinds:                                   2
                             - Atoms:                                          3
                             - Shell sets:                                     6
                             - Shells:                                        30
                             - Primitive Cartesian functions:                 24
                             - Cartesian basis functions:                     84
                             - Spherical basis functions:                     78

  Maximum angular momentum of- Orbital basis functions:                        2
                             - Local part of the GTH pseudopotential:          2
                             - Non-local part of the GTH pseudopotential:      0


 MODULE QUICKSTEP:  ATOMIC COORDINATES IN angstrom

  Atom  Kind  Element       X           Y           Z          Z(eff)       Mass

       1     1 O    8    0.000000    0.000000   -1.167609      6.00      15.9994
       2     1 O    8    0.000000    0.000000    1.167609      6.00      15.9994
       3     2 C    6    0.000000    0.000000    0.000000      4.00      12.0107




 SCF PARAMETERS         Density guess:                                   RESTART
                        --------------------------------------------------------
                        max_scf:                                              30
                        max_scf_history:                                       0
                        max_diis:                                              4
                        --------------------------------------------------------
                        eps_scf:                                        1.00E-06
                        eps_scf_history:                                0.00E+00
                        eps_diis:                                       1.00E-01
                        eps_eigval:                                     1.00E-05
                        --------------------------------------------------------
                        level_shift [a.u.]:                                 0.00
                        --------------------------------------------------------
                        Outer loop SCF in use 
                        No variables optimised in outer loop
                        eps_scf                                         1.00E-06
                        max_scf                                               20
                        No outer loop optimization
                        step_size                                       5.00E-01

 PW_GRID: Information for grid number                                          7
 PW_GRID: Cutoff [a.u.]                                                    350.0
 PW_GRID: spherical cutoff:                                                   NO
 PW_GRID:   Bounds   1            -80      79                Points:         160
 PW_GRID:   Bounds   2            -80      79                Points:         160
 PW_GRID:   Bounds   3           -108     107                Points:         216
 PW_GRID: Volume element (a.u.^3)  0.1587E-02     Volume (a.u.^3)      8772.8350
 PW_GRID: Grid span                                                    FULLSPACE

 PW_GRID: Information for grid number                                          8
 PW_GRID: Cutoff [a.u.]                                                    175.0
 PW_GRID: spherical cutoff:                                                   NO
 PW_GRID:   Bounds   1            -60      59                Points:         120
 PW_GRID:   Bounds   2            -60      59                Points:         120
 PW_GRID:   Bounds   3            -75      74                Points:         150
 PW_GRID: Volume element (a.u.^3)  0.4061E-02     Volume (a.u.^3)      8772.8350
 PW_GRID: Grid span                                                    FULLSPACE

 PW_GRID: Information for grid number                                          9
 PW_GRID: Cutoff [a.u.]                                                     58.3
 PW_GRID: spherical cutoff:                                                   NO
 PW_GRID:   Bounds   1            -36      35                Points:          72
 PW_GRID:   Bounds   2            -36      35                Points:          72
 PW_GRID:   Bounds   3            -45      44                Points:          90
 PW_GRID: Volume element (a.u.^3)  0.1880E-01     Volume (a.u.^3)      8772.8350
 PW_GRID: Grid span                                                    FULLSPACE

 PW_GRID: Information for grid number                                         10
 PW_GRID: Cutoff [a.u.]                                                     19.4
 PW_GRID: spherical cutoff:                                                   NO
 PW_GRID:   Bounds   1            -20      19                Points:          40
 PW_GRID:   Bounds   2            -20      19                Points:          40
 PW_GRID:   Bounds   3            -27      26                Points:          54
 PW_GRID: Volume element (a.u.^3)  0.1015         Volume (a.u.^3)      8772.8350
 PW_GRID: Grid span                                                    FULLSPACE

 PW_GRID: Information for grid number                                         11
 PW_GRID: Cutoff [a.u.]                                                      6.5
 PW_GRID: spherical cutoff:                                                   NO
 PW_GRID:   Bounds   1            -12      11                Points:          24
 PW_GRID:   Bounds   2            -12      11                Points:          24
 PW_GRID:   Bounds   3            -15      14                Points:          30
 PW_GRID: Volume element (a.u.^3)  0.5077         Volume (a.u.^3)      8772.8350
 PW_GRID: Grid span                                                    FULLSPACE

 PW_GRID: Information for grid number                                         12
 PW_GRID: Cutoff [a.u.]                                                      2.2
 PW_GRID: spherical cutoff:                                                   NO
 PW_GRID:   Bounds   1             -7       7                Points:          15
 PW_GRID:   Bounds   2             -7       7                Points:          15
 PW_GRID:   Bounds   3             -9       8                Points:          18
 PW_GRID: Volume element (a.u.^3)   2.166         Volume (a.u.^3)      8772.8350
 PW_GRID: Grid span                                                    FULLSPACE

 RS_GRID: Information for grid number                                          8
 RS_GRID:   Bounds   1            -60      59                Points:         120
 RS_GRID:   Bounds   2            -60      59                Points:         120
 RS_GRID:   Bounds   3            -75      74                Points:         150

 RS_GRID: Information for grid number                                          9
 RS_GRID:   Bounds   1            -36      35                Points:          72
 RS_GRID:   Bounds   2            -36      35                Points:          72
 RS_GRID:   Bounds   3            -45      44                Points:          90

 RS_GRID: Information for grid number                                         10
 RS_GRID:   Bounds   1            -20      19                Points:          40
 RS_GRID:   Bounds   2            -20      19                Points:          40
 RS_GRID:   Bounds   3            -27      26                Points:          54

 RS_GRID: Information for grid number                                         11
 RS_GRID:   Bounds   1            -12      11                Points:          24
 RS_GRID:   Bounds   2            -12      11                Points:          24
 RS_GRID:   Bounds   3            -15      14                Points:          30

 RS_GRID: Information for grid number                                         12
 RS_GRID:   Bounds   1             -7       7                Points:          15
 RS_GRID:   Bounds   2             -7       7                Points:          15
 RS_GRID:   Bounds   3             -9       8                Points:          18

 DISTRIBUTION OF THE PARTICLES (ROWS)
              Process row      Number of particles         Number of matrix rows
                        0                        3                            -1
                      Sum                        3                            -1

 DISTRIBUTION OF THE PARTICLES (COLUMNS)
              Process col      Number of particles      Number of matrix columns
                        0                        3                            -1
                      Sum                        3                            -1

 DISTRIBUTION OF THE NEIGHBOR LISTS
              Total number of particle pairs:                                 39
              Total number of matrix elements:                             26364
              Average number of particle pairs:                               39
              Maximum number of particle pairs:                               39
              Average number of matrix element:                            26364
              Maximum number of matrix elements:                           26364


 DISTRIBUTION OF THE OVERLAP MATRIX
              Number  of non-zero blocks:                                      6
              Percentage non-zero blocks:                                 100.00
              Average number of blocks per CPU:                                6
              Maximum number of blocks per CPU:                                6
              Average number of matrix elements per CPU:                    4056
              Maximum number of matrix elements per CPU:                    4056

 Number of electrons:                                                         16
 Number of occupied orbitals:                                                  8
 Number of molecular orbitals:                                                 8

 Number of orbital functions:                                                 78
 Number of independent orbital functions:                                     78

 Extrapolation method: initial_guess

 *** 10:26:35 WARNING in qs_initial_guess:calculate_first_density_matrix    ***
 *** err=-300  User requested to restart the wavefunction from the file     ***
 *** named: temp-r-3-RESTART.wfn. This file does not exist. Please check    ***
 *** the existence of the file or change properly the value of the keyword  ***
 *** WFN_RESTART_FILE_NAME. Calculation continues using ATOMIC GUESS.       ***
 *** /usr/local/u/jmlarkin/CP2K/cp2k/makefiles/../src/qs_initial_guess.F    ***
 *** line    231                                                            ***

 Atomic guess: The first density matrix is obtained in terms of atomic orbitals
               and electronic configurations assigned to each atomic kind

 Guess for atomic kind: O

 Electronic structure
    Total number of core electrons                                          2.00
    Total number of valence electrons                                       6.00
    Total number of electrons                                               8.00
    Multiplicity                                                   not specified
    S   [  2.00] 2.00
    P      4.00
 

 *******************************************************************************
                  Iteration          Convergence                     Energy [au]
 *******************************************************************************
                          1         2.18546                     -14.421592257754
                          2         2.69278                     -13.555084223277
                          3        0.447857                     -15.582518344613
                          4        0.533362E-01                 -15.656339190379
                          5        0.343584E-02                 -15.657205503018
                          6        0.157467E-03                 -15.657209313096
                          7        0.668939E-06                 -15.657209321838

 Energy components [Hartree]           Total Energy ::          -15.657209321838
                                        Band Energy ::           -3.002498769363
                                     Kinetic Energy ::           11.774068762364
                                   Potential Energy ::          -27.431278084202
                                      Virial (-V/T) ::            2.329804474379
                                        Core Energy ::          -26.139244223055
                                          XC Energy ::           -3.153870619768
                                     Coulomb Energy ::           13.635905520985
                       Total Pseudopotential Energy ::          -37.948527599483
                       Local Pseudopotential Energy ::          -39.248895363653
                    Nonlocal Pseudopotential Energy ::            1.300367764171
                                        Confinement ::            0.352146140634

 Orbital energies  State     L     Occupation   Energy[a.u.]          Energy[eV]

                       1     0          2.000      -0.865035          -23.538787
                       2     0          0.000       0.148161            4.031658
                       3     0          0.000       1.268684           34.522651
                       4     0          0.000      15.043188          409.345953
 
                       1     1          4.000      -0.318107           -8.656143
                       2     1          0.000       0.229143            6.235300
                       3     1          0.000       1.076359           29.289206
                       4     1          0.000       4.260328          115.929412
 

 Guess for atomic kind: C

 Electronic structure
    Total number of core electrons                                          2.00
    Total number of valence electrons                                       4.00
    Total number of electrons                                               6.00
    Multiplicity                                                   not specified
    S   [  2.00] 2.00
    P      2.00
 

 *******************************************************************************
                  Iteration          Convergence                     Energy [au]
 *******************************************************************************
                          1        0.298189                      -5.146106674700
                          2        0.233825                      -5.202427473298
                          3        0.178756E-01                  -5.283543978370
                          4        0.570045E-03                  -5.284038237521
                          5        0.299436E-04                  -5.284038356028
                          6        0.163542E-06                  -5.284038357465

 Energy components [Hartree]           Total Energy ::           -5.284038357465
                                        Band Energy ::           -1.317146178102
                                     Kinetic Energy ::            3.390422048629
                                   Potential Energy ::           -8.674460406095
                                      Virial (-V/T) ::            2.558519347053
                                        Core Energy ::           -8.295784343766
                                          XC Energy ::           -1.377306946079
                                     Coulomb Energy ::            4.389052932380
                       Total Pseudopotential Energy ::          -11.720389813560
                       Local Pseudopotential Energy ::          -12.366572543168
                    Nonlocal Pseudopotential Energy ::            0.646182729609
                                        Confinement ::            0.341834211642

 Orbital energies  State     L     Occupation   Energy[a.u.]          Energy[eV]

                       1     0          2.000      -0.484432          -13.182076
                       2     0          0.000       0.102012            2.775900
                       3     0          0.000       0.691171           18.807710
                       4     0          0.000       8.065504          219.473523
 
                       1     1          2.000      -0.174141           -4.738609
                       2     1          0.000       0.160398            4.364645
                       3     1          0.000       0.605105           16.465744
                       4     1          0.000       2.314792           62.988684
 
 Re-scaling the density matrix to get the right number of electrons
                  # Electrons              Trace(P)               Scaling factor
                           16                16.000                        1.000


 SCF WAVEFUNCTION OPTIMIZATION

  ----------------------------------- OT ---------------------------------------

  Allowing for rotations:  F
  Optimizing orbital energies:  F
  Minimizer      : DIIS                : direct inversion
                                         in the iterative subspace
                            using      : -   7 DIIS vectors
                                         - safer DIIS on
  Preconditioner : FULL_ALL            : diagonalization, state selective
  Precond_solver : DEFAULT
  stepsize       :    0.15000000
  energy_gap     :    0.00100000

  eps_taylor     :   0.10000E-15
  max_taylor     :             4

  mixed_precision    : F

  ----------------------------------- OT ---------------------------------------

  Step     Update method      Time    Convergence         Total energy    Change
  ------------------------------------------------------------------------------

  Electronic density on regular grids:        -16.0000000134       -0.0000000134
  Core density on regular grids:               16.0000000000        0.0000000000
  Total charge density on r-space grids:       -0.0000000134
  Total charge density g-space grids:          -0.0000000134

     1 OT DIIS     0.15E+00    5.8     0.16160763       -36.1565424526 -3.62E+01

  Electronic density on regular grids:        -16.0000000129       -0.0000000129
  Core density on regular grids:               16.0000000000        0.0000000000
  Total charge density on r-space grids:       -0.0000000129
  Total charge density g-space grids:          -0.0000000129

     2 OT DIIS     0.15E+00    4.3     0.43044799       -35.4418353338  7.15E-01

  Electronic density on regular grids:        -16.0000000174       -0.0000000174
  Core density on regular grids:               16.0000000000        0.0000000000
  Total charge density on r-space grids:       -0.0000000174
  Total charge density g-space grids:          -0.0000000174

     3 OT DIIS     0.15E+00    4.1     0.12611656       -37.0005176147 -1.56E+00

  Electronic density on regular grids:        -16.0000000119       -0.0000000119
  Core density on regular grids:               16.0000000000        0.0000000000
  Total charge density on r-space grids:       -0.0000000119
  Total charge density g-space grids:          -0.0000000119

     4 OT DIIS     0.15E+00    4.0     0.08032491       -37.3998035710 -3.99E-01

  Electronic density on regular grids:        -16.0000000125       -0.0000000125
  Core density on regular grids:               16.0000000000        0.0000000000
  Total charge density on r-space grids:       -0.0000000125
  Total charge density g-space grids:          -0.0000000125

     5 OT DIIS     0.15E+00    4.0     0.05430909       -37.6051671089 -2.05E-01

  Electronic density on regular grids:        -16.0000000104       -0.0000000104
  Core density on regular grids:               16.0000000000        0.0000000000
  Total charge density on r-space grids:       -0.0000000104
  Total charge density g-space grids:          -0.0000000104

     6 OT DIIS     0.15E+00    3.9     0.06218863       -37.6897551003 -8.46E-02

  Electronic density on regular grids:        -16.0000000108       -0.0000000108
  Core density on regular grids:               16.0000000000        0.0000000000
  Total charge density on r-space grids:       -0.0000000108
  Total charge density g-space grids:          -0.0000000108

     7 OT DIIS     0.15E+00    3.9     0.05665458       -37.6902150261 -4.60E-04

  Electronic density on regular grids:        -16.0000000093       -0.0000000093
  Core density on regular grids:               16.0000000000        0.0000000000
  Total charge density on r-space grids:       -0.0000000093
  Total charge density g-space grids:          -0.0000000093

     8 OT DIIS     0.15E+00    3.9     0.01380568       -37.7582142391 -6.80E-02

  Electronic density on regular grids:        -16.0000000096       -0.0000000096
  Core density on regular grids:               16.0000000000        0.0000000000
  Total charge density on r-space grids:       -0.0000000096
  Total charge density g-space grids:          -0.0000000096

     9 OT DIIS     0.15E+00    3.8     0.00927570       -37.7639691027 -5.75E-03

  Electronic density on regular grids:        -16.0000000095       -0.0000000095
  Core density on regular grids:               16.0000000000        0.0000000000
  Total charge density on r-space grids:       -0.0000000095
  Total charge density g-space grids:          -0.0000000095

    10 OT DIIS     0.15E+00    3.8     0.00623513       -37.7659244688 -1.96E-03

  Electronic density on regular grids:        -16.0000000097       -0.0000000097
  Core density on regular grids:               16.0000000000        0.0000000000
  Total charge density on r-space grids:       -0.0000000097
  Total charge density g-space grids:          -0.0000000097

    11 OT DIIS     0.15E+00    3.8     0.00371097       -37.7665396223 -6.15E-04

  Electronic density on regular grids:        -16.0000000097       -0.0000000097
  Core density on regular grids:               16.0000000000        0.0000000000
  Total charge density on r-space grids:       -0.0000000097
  Total charge density g-space grids:          -0.0000000097

    12 OT DIIS     0.15E+00    3.8     0.00158662       -37.7669789154 -4.39E-04

  Electronic density on regular grids:        -16.0000000097       -0.0000000097
  Core density on regular grids:               16.0000000000        0.0000000000
  Total charge density on r-space grids:       -0.0000000097
  Total charge density g-space grids:          -0.0000000097

    13 OT DIIS     0.15E+00    3.8     0.00091120       -37.7671349755 -1.56E-04

  Electronic density on regular grids:        -16.0000000098       -0.0000000098
  Core density on regular grids:               16.0000000000        0.0000000000
  Total charge density on r-space grids:       -0.0000000098
  Total charge density g-space grids:          -0.0000000098

    14 OT DIIS     0.15E+00    3.8     0.00047622       -37.7671750028 -4.00E-05

  Electronic density on regular grids:        -16.0000000098       -0.0000000098
  Core density on regular grids:               16.0000000000        0.0000000000
  Total charge density on r-space grids:       -0.0000000098
  Total charge density g-space grids:          -0.0000000098

    15 OT DIIS     0.15E+00    3.8     0.00045922       -37.7671851031 -1.01E-05

  Electronic density on regular grids:        -16.0000000098       -0.0000000098
  Core density on regular grids:               16.0000000000        0.0000000000
  Total charge density on r-space grids:       -0.0000000098
  Total charge density g-space grids:          -0.0000000098

    16 OT DIIS     0.15E+00    3.7     0.00026585       -37.7671904740 -5.37E-06

  Electronic density on regular grids:        -16.0000000098       -0.0000000098
  Core density on regular grids:               16.0000000000        0.0000000000
  Total charge density on r-space grids:       -0.0000000098
  Total charge density g-space grids:          -0.0000000098

    17 OT DIIS     0.15E+00    3.8     0.00013076       -37.7671923785 -1.90E-06

  Electronic density on regular grids:        -16.0000000098       -0.0000000098
  Core density on regular grids:               16.0000000000        0.0000000000
  Total charge density on r-space grids:       -0.0000000098
  Total charge density g-space grids:          -0.0000000098

    18 OT DIIS     0.15E+00    3.7     0.00013466       -37.7671931786 -8.00E-07

  Electronic density on regular grids:        -16.0000000098       -0.0000000098
  Core density on regular grids:               16.0000000000        0.0000000000
  Total charge density on r-space grids:       -0.0000000098
  Total charge density g-space grids:          -0.0000000098

    19 OT DIIS     0.15E+00    3.8     0.00010144       -37.7671933817 -2.03E-07

  Electronic density on regular grids:        -16.0000000098       -0.0000000098
  Core density on regular grids:               16.0000000000        0.0000000000
  Total charge density on r-space grids:       -0.0000000098
  Total charge density g-space grids:          -0.0000000098

    20 OT DIIS     0.15E+00    3.7     0.00004800       -37.7671935366 -1.55E-07

  Electronic density on regular grids:        -16.0000000098       -0.0000000098
  Core density on regular grids:               16.0000000000        0.0000000000
  Total charge density on r-space grids:       -0.0000000098
  Total charge density g-space grids:          -0.0000000098

    21 OT DIIS     0.15E+00    3.8     0.00002520       -37.7671936113 -7.46E-08

  Electronic density on regular grids:        -16.0000000098       -0.0000000098
  Core density on regular grids:               16.0000000000        0.0000000000
  Total charge density on r-space grids:       -0.0000000098
  Total charge density g-space grids:          -0.0000000098

    22 OT DIIS     0.15E+00    3.8     0.00001813       -37.7671936383 -2.70E-08

  Electronic density on regular grids:        -16.0000000098       -0.0000000098
  Core density on regular grids:               16.0000000000        0.0000000000
  Total charge density on r-space grids:       -0.0000000098
  Total charge density g-space grids:          -0.0000000098

    23 OT DIIS     0.15E+00    3.8     0.00001478       -37.7671936521 -1.38E-08

  Electronic density on regular grids:        -16.0000000098       -0.0000000098
  Core density on regular grids:               16.0000000000        0.0000000000
  Total charge density on r-space grids:       -0.0000000098
  Total charge density g-space grids:          -0.0000000098

    24 OT DIIS     0.15E+00    3.7     0.00001177       -37.7671936578 -5.69E-09

  Electronic density on regular grids:        -16.0000000098       -0.0000000098
  Core density on regular grids:               16.0000000000        0.0000000000
  Total charge density on r-space grids:       -0.0000000098
  Total charge density g-space grids:          -0.0000000098

    25 OT DIIS     0.15E+00    3.7     0.00000628       -37.7671936610 -3.18E-09

  Electronic density on regular grids:        -16.0000000098       -0.0000000098
  Core density on regular grids:               16.0000000000        0.0000000000
  Total charge density on r-space grids:       -0.0000000098
  Total charge density g-space grids:          -0.0000000098

    26 OT DIIS     0.15E+00    3.8     0.00000537       -37.7671936627 -1.77E-09

  Electronic density on regular grids:        -16.0000000098       -0.0000000098
  Core density on regular grids:               16.0000000000        0.0000000000
  Total charge density on r-space grids:       -0.0000000098
  Total charge density g-space grids:          -0.0000000098

    27 OT DIIS     0.15E+00    3.8     0.00000608       -37.7671936633 -5.54E-10

  Electronic density on regular grids:        -16.0000000098       -0.0000000098
  Core density on regular grids:               16.0000000000        0.0000000000
  Total charge density on r-space grids:       -0.0000000098
  Total charge density g-space grids:          -0.0000000098

    28 OT DIIS     0.15E+00    3.8     0.00000353       -37.7671936639 -5.97E-10

  Electronic density on regular grids:        -16.0000000098       -0.0000000098
  Core density on regular grids:               16.0000000000        0.0000000000
  Total charge density on r-space grids:       -0.0000000098
  Total charge density g-space grids:          -0.0000000098

    29 OT DIIS     0.15E+00    3.8     0.00000183       -37.7671936642 -3.33E-10

  Electronic density on regular grids:        -16.0000000098       -0.0000000098
  Core density on regular grids:               16.0000000000        0.0000000000
  Total charge density on r-space grids:       -0.0000000098
  Total charge density g-space grids:          -0.0000000098

    30 OT DIIS     0.15E+00    3.8     0.00000128       -37.7671936644 -1.54E-10

  *** SCF run NOT converged ***


  Electronic density on regular grids:        -16.0000000098       -0.0000000098
  Core density on regular grids:               16.0000000000        0.0000000000
  Total charge density on r-space grids:       -0.0000000098
  Total charge density g-space grids:          -0.0000000098

  Overlap energy of the core charge distribution:               0.00000274954716
  Self energy of the core charge distribution:                -96.38742208476296
  Core Hamiltonian energy:                                     27.75460901164081
  Hartree energy:                                              39.53359549375680
  Exchange-correlation energy:                                 -8.66788426833612
  Dispersion energy:                                           -0.00009456621754

  Total energy:                                               -37.76719366437185

  outer SCF iter =    1 RMS gradient =   0.13E-05 energy =        -37.7671936644

  ----------------------------------- OT ---------------------------------------

  Allowing for rotations:  F
  Optimizing orbital energies:  F
  Minimizer      : DIIS                : direct inversion
                                         in the iterative subspace
                            using      : -   7 DIIS vectors
                                         - safer DIIS on
  Preconditioner : FULL_ALL            : diagonalization, state selective
  Precond_solver : DEFAULT
  stepsize       :    0.15000000
  energy_gap     :    0.00100000

  eps_taylor     :   0.10000E-15
  max_taylor     :             4

  mixed_precision    : F

  ----------------------------------- OT ---------------------------------------

  Step     Update method      Time    Convergence         Total energy    Change
  ------------------------------------------------------------------------------

  Electronic density on regular grids:        -16.0000000098       -0.0000000098
  Core density on regular grids:               16.0000000000        0.0000000000
  Total charge density on r-space grids:       -0.0000000098
  Total charge density g-space grids:          -0.0000000098

     1 OT DIIS     0.15E+00    7.6     0.00000099       -37.7671936645 -7.95E-11

  *** SCF run converged in     1 steps ***


  Electronic density on regular grids:        -16.0000000098       -0.0000000098
  Core density on regular grids:               16.0000000000        0.0000000000
  Total charge density on r-space grids:       -0.0000000098
  Total charge density g-space grids:          -0.0000000098

  Overlap energy of the core charge distribution:               0.00000274954716
  Self energy of the core charge distribution:                -96.38742208476296
  Core Hamiltonian energy:                                     27.75460674268767
  Hartree energy:                                              39.53359754673991
  Exchange-correlation energy:                                 -8.66788405244560
  Dispersion energy:                                           -0.00009456621754

  Total energy:                                               -37.76719366445136

  outer SCF iter =    2 RMS gradient =   0.99E-06 energy =        -37.7671936645
  outer SCF loop converged in   2 iterations or   31 steps



 MULLIKEN POPULATION ANALYSIS

 # Atom  Element  Kind  Atomic population                Net charge
      1     O        1           6.304129                 -0.304129
      2     O        1           6.304126                 -0.304126
      3     C        2           3.391745                  0.608255
 # Total charge                 16.000000                  0.000000


 MOMENTS
  The electric moments are written to file:
  /usr/local/u/jmlarkin/CP2K/CdSe/vib/./MOMENTS-moments.dat


 LOCALIZE| The spread relative to a set of orbitals is computed
 LOCALIZE| Orbitals to be localized: All the occupied
 LOCALIZE| If fractional occupation, fully occupied MOs are those within occupation tolerance of       0.00000100
 LOCALIZE| Spread defined by the Berry phase operator 
 LOCALIZE| The optimal unitary transformation is generated by the Crazy angle algorithm
 LOCALIZE| maximum angle:       0.05000000
 LOCALIZE| scaling:       1.00000000
 LOCALIZE| use diag:F
  
  Eigenvalues of the occupied subspace spin            1
 ---------------------------------------------
      -1.07539665     -1.03872654     -0.50795704     -0.46709947
      -0.46709792     -0.46672085     -0.33407644     -0.33407319
 Fermi Energy [eV] :   -9.090594

 LOCALIZATION| Computing localization properties for OCCUPIED ORBITALS. Spin:  1
          Spread Functional     sum_in -w_i ln(|z_in|^2)    sum_in w_i(1-|z_in|^2)
    Initial Spread (Berry) :                  48.8799497629       42.3573612232
 CRAZY|   Iter            value        gradient   Max. eval       limit
 CRAZY|      1 664.162987462196      0.4014E+02  0.2312E+00  0.5000E-01
 CRAZY|      2 658.474590745641      0.4083E+02  0.1760E+00  0.5000E-01
 CRAZY|      3 652.585017749930      0.3853E+02  0.1528E+00  0.5000E-01
 CRAZY|      4 646.496740010946      0.3347E+02  0.1523E+00  0.5000E-01
 CRAZY|      5 640.221948362749      0.2939E+02  0.1521E+00  0.5000E-01
 CRAZY|      6 634.653070527925      0.3361E+02  0.1517E+00  0.5000E-01
 CRAZY|      7 630.455161326887      0.3544E+02  0.1514E+00  0.5000E-01
 CRAZY|      8 627.111723418077      0.3865E+02  0.1514E+00  0.5000E-01
 CRAZY|      9 624.042533927370      0.3903E+02  0.1531E+00  0.5000E-01
 CRAZY|     10 621.634717728880      0.3503E+02  0.1487E+00  0.5000E-01
 CRAZY|     11 619.533706990142      0.3308E+02  0.1523E+00  0.5000E-01
 CRAZY|     12 617.866283881323      0.2823E+02  0.7943E-01  0.5000E-01
 CRAZY|     13 616.440321998093      0.2325E+02  0.1003E+00  0.5000E-01
 CRAZY|     14 615.319954400087      0.1724E+02  0.8563E-01  0.5000E-01
 CRAZY|     15 614.504477534159      0.1091E+02  0.9263E-01  0.5000E-01
 CRAZY|     16 614.017601496002      0.4268E+01  0.8876E-01  0.5000E-01
 CRAZY|     17 613.860102663199      0.2461E+01  0.6458E-01  0.5000E-01
 CRAZY|     18 613.819183989528      0.1014E+01  0.3027E-01  0.5000E-01
 CRAZY|     19 613.808638123268      0.6465E+00  0.1763E-01  0.5000E-01
 CRAZY|     20 613.805877950570      0.2395E+00  0.7213E-02  0.5000E-01
 CRAZY|     21 613.805144252582      0.1777E+00  0.5006E-02  0.5000E-01
 CRAZY|     22 613.804939297927      0.6064E-01  0.2751E-02  0.5000E-01
 CRAZY|     23 613.804876957535      0.5227E-01  0.2150E-02  0.5000E-01
 CRAZY|     24 613.804854888854      0.3708E-01  0.1680E-02  0.5000E-01
 CRAZY|     25 613.804845535946      0.3120E-01  0.1314E-02  0.5000E-01
 CRAZY|     26 613.804840826932      0.2250E-01  0.1029E-02  0.5000E-01
 CRAZY|     27 613.804838179994      0.1968E-01  0.8043E-03  0.5000E-01
 CRAZY|     28 613.804836581135      0.1348E-01  0.6305E-03  0.5000E-01
 CRAZY|     29 613.804835575108      0.1257E-01  0.4927E-03  0.5000E-01
 CRAZY|     30 613.804834916904      0.7904E-02  0.3870E-03  0.5000E-01
 CRAZY|     31 613.804834469406      0.8178E-02  0.3021E-03  0.5000E-01
 CRAZY|     32 613.804834149913      0.4988E-02  0.2378E-03  0.5000E-01
 CRAZY|     33 613.804833909000      0.5466E-02  0.1852E-03  0.5000E-01
 CRAZY|     34 613.804833716214      0.3462E-02  0.1463E-03  0.5000E-01
 CRAZY|     35 613.804833553043      0.3793E-02  0.1136E-03  0.5000E-01
 CRAZY|     36 613.804833408054      0.2532E-02  0.9019E-04  0.5000E-01
 CRAZY|     37 613.804833274258      0.2761E-02  0.7230E-04  0.5000E-01
 CRAZY|     38 613.804833147346      0.1965E-02  0.5989E-04  0.5000E-01
 CRAZY|     39 613.804833024673      0.2124E-02  0.5774E-04  0.5000E-01
 CRAZY|     40 613.804832904609      0.1618E-02  0.5032E-04  0.5000E-01
 CRAZY|     41 613.804832786154      0.1731E-02  0.4878E-04  0.5000E-01
 CRAZY|     42 613.804832668688      0.1406E-02  0.4444E-04  0.5000E-01
 CRAZY|     43 613.804832551837      0.1489E-02  0.4327E-04  0.5000E-01
 CRAZY|     44 613.804832435367      0.1275E-02  0.4083E-04  0.5000E-01
 CRAZY|     45 613.804832319127      0.1340E-02  0.3987E-04  0.5000E-01
 CRAZY|     46 613.804832203035      0.1195E-02  0.3861E-04  0.5000E-01
 CRAZY|     47 613.804832087037      0.1248E-02  0.3777E-04  0.5000E-01
 CRAZY|     48 613.804831971096      0.1148E-02  0.3724E-04  0.5000E-01
 CRAZY|     49 613.804831855197      0.1191E-02  0.3703E-04  0.5000E-01
 CRAZY|     50 613.804831739322      0.1134E-02  0.3699E-04  0.5000E-01
 CRAZY|     51 613.804831623467      0.1156E-02  0.3694E-04  0.5000E-01
 CRAZY|     52 613.804831507626      0.1125E-02  0.3692E-04  0.5000E-01
 CRAZY|     53 613.804831391791      0.1134E-02  0.3688E-04  0.5000E-01
 CRAZY|     54 613.804831275963      0.1120E-02  0.3689E-04  0.5000E-01
 CRAZY|     55 613.804831160142      0.1121E-02  0.3684E-04  0.5000E-01
 CRAZY|     56 613.804831044327      0.1116E-02  0.3687E-04  0.5000E-01
 CRAZY|     57 613.804830928518      0.1113E-02  0.3682E-04  0.5000E-01
 CRAZY|     58 613.804830812717      0.1114E-02  0.3685E-04  0.5000E-01
 CRAZY|     59 613.804830696921      0.1109E-02  0.3682E-04  0.5000E-01
 CRAZY|     60 613.804830581129      0.1113E-02  0.3684E-04  0.5000E-01
 CRAZY|     61 613.804830465343      0.1109E-02  0.3682E-04  0.5000E-01
 CRAZY|     62 613.804830349560      0.1112E-02  0.3683E-04  0.5000E-01
 CRAZY|     63 613.804830233784      0.1110E-02  0.3682E-04  0.5000E-01
 CRAZY|     64 613.804830118013      0.1111E-02  0.3683E-04  0.5000E-01
 CRAZY|     65 613.804830002246      0.1110E-02  0.3682E-04  0.5000E-01
 CRAZY|     66 613.804829886486      0.1111E-02  0.3683E-04  0.5000E-01
 CRAZY|     67 613.804829770733      0.1110E-02  0.3682E-04  0.5000E-01
 CRAZY|     68 613.804829654983      0.1111E-02  0.3682E-04  0.5000E-01
 CRAZY|     69 613.804829539241      0.1110E-02  0.3682E-04  0.5000E-01
 CRAZY|     70 613.804829423502      0.1111E-02  0.3682E-04  0.5000E-01
 CRAZY|     71 613.804829307770      0.1110E-02  0.3681E-04  0.5000E-01
 CRAZY|     72 613.804829192043      0.1110E-02  0.3681E-04  0.5000E-01
 CRAZY|     73 613.804829076320      0.1110E-02  0.3681E-04  0.5000E-01
 CRAZY|     74 613.804828960599      0.1110E-02  0.3681E-04  0.5000E-01
 CRAZY|     75 613.804828844888      0.1110E-02  0.3681E-04  0.5000E-01
 CRAZY|     76 613.804828729181      0.1110E-02  0.3681E-04  0.5000E-01
 CRAZY|     77 613.804828613479      0.1110E-02  0.3681E-04  0.5000E-01
 CRAZY|     78 613.804828497782      0.1110E-02  0.3681E-04  0.5000E-01
 CRAZY|     79 613.804828382091      0.1110E-02  0.3680E-04  0.5000E-01
 CRAZY|     80 613.804828266406      0.1110E-02  0.3680E-04  0.5000E-01
 CRAZY|     81 613.804828150725      0.1110E-02  0.3680E-04  0.5000E-01
 CRAZY|     82 613.804828035050      0.1110E-02  0.3680E-04  0.5000E-01
 CRAZY|     83 613.804827919380      0.1110E-02  0.3680E-04  0.5000E-01
 CRAZY|     84 613.804827803714      0.1110E-02  0.3680E-04  0.5000E-01
 CRAZY|     85 613.804827688056      0.1110E-02  0.3679E-04  0.5000E-01
 CRAZY|     86 613.804827572402      0.1110E-02  0.3679E-04  0.5000E-01
 CRAZY|     87 613.804827456755      0.1110E-02  0.3679E-04  0.5000E-01
 CRAZY|     88 613.804827341112      0.1110E-02  0.3679E-04  0.5000E-01
 CRAZY|     89 613.804827225473      0.1110E-02  0.3679E-04  0.5000E-01
 CRAZY|     90 613.804827109842      0.1110E-02  0.3679E-04  0.5000E-01
 CRAZY|     91 613.804826994216      0.1109E-02  0.3679E-04  0.5000E-01
 CRAZY|     92 613.804826878595      0.1109E-02  0.3678E-04  0.5000E-01
 CRAZY|     93 613.804826762980      0.1109E-02  0.3678E-04  0.5000E-01
 CRAZY|     94 613.804826647371      0.1109E-02  0.3678E-04  0.5000E-01
 CRAZY|     95 613.804826531765      0.1109E-02  0.3678E-04  0.5000E-01
 CRAZY|     96 613.804826416166      0.1109E-02  0.3678E-04  0.5000E-01
 CRAZY|     97 613.804826300573      0.1109E-02  0.3678E-04  0.5000E-01
 CRAZY|     98 613.804826184985      0.1109E-02  0.3678E-04  0.5000E-01
 CRAZY|     99 613.804826069401      0.1109E-02  0.3677E-04  0.5000E-01
 CRAZY|    100 613.804825953822      0.1109E-02  0.3677E-04  0.5000E-01
 CRAZY|    101 613.804825838249      0.1109E-02  0.3677E-04  0.5000E-01
 CRAZY|    102 613.804825722682      0.1109E-02  0.3677E-04  0.5000E-01
 CRAZY|    103 613.804825607121      0.1109E-02  0.3677E-04  0.5000E-01
 CRAZY|    104 613.804825491565      0.1109E-02  0.3677E-04  0.5000E-01
 CRAZY|    105 613.804825376014      0.1109E-02  0.3676E-04  0.5000E-01
 CRAZY|    106 613.804825260469      0.1109E-02  0.3676E-04  0.5000E-01
 CRAZY|    107 613.804825144931      0.1109E-02  0.3676E-04  0.5000E-01
 CRAZY|    108 613.804825029397      0.1109E-02  0.3676E-04  0.5000E-01
 CRAZY|    109 613.804824913868      0.1109E-02  0.3676E-04  0.5000E-01
 CRAZY|    110 613.804824798344      0.1109E-02  0.3676E-04  0.5000E-01
 CRAZY|    111 613.804824682825      0.1109E-02  0.3676E-04  0.5000E-01
 CRAZY|    112 613.804824567313      0.1109E-02  0.3675E-04  0.5000E-01
 CRAZY|    113 613.804824451806      0.1108E-02  0.3675E-04  0.5000E-01
 CRAZY|    114 613.804824336304      0.1108E-02  0.3675E-04  0.5000E-01
 CRAZY|    115 613.804824220811      0.1108E-02  0.3675E-04  0.5000E-01
 CRAZY|    116 613.804824105320      0.1108E-02  0.3675E-04  0.5000E-01
 CRAZY|    117 613.804823989834      0.1108E-02  0.3675E-04  0.5000E-01
 CRAZY|    118 613.804823874353      0.1108E-02  0.3675E-04  0.5000E-01
 CRAZY|    119 613.804823758877      0.1108E-02  0.3674E-04  0.5000E-01
 CRAZY|    120 613.804823643408      0.1108E-02  0.3674E-04  0.5000E-01
 CRAZY|    121 613.804823527945      0.1108E-02  0.3674E-04  0.5000E-01
 CRAZY|    122 613.804823412488      0.1108E-02  0.3674E-04  0.5000E-01
 CRAZY|    123 613.804823297034      0.1108E-02  0.3674E-04  0.5000E-01
 CRAZY|    124 613.804823181586      0.1108E-02  0.3674E-04  0.5000E-01
 CRAZY|    125 613.804823066145      0.1108E-02  0.3673E-04  0.5000E-01
 CRAZY|    126 613.804822950708      0.1108E-02  0.3673E-04  0.5000E-01
 CRAZY|    127 613.804822835277      0.1108E-02  0.3673E-04  0.5000E-01
 CRAZY|    128 613.804822719852      0.1108E-02  0.3673E-04  0.5000E-01
 CRAZY|    129 613.804822604434      0.1108E-02  0.3673E-04  0.5000E-01
 CRAZY|    130 613.804822489019      0.1108E-02  0.3673E-04  0.5000E-01
 CRAZY|    131 613.804822373610      0.1108E-02  0.3673E-04  0.5000E-01
 CRAZY|    132 613.804822258204      0.1108E-02  0.3672E-04  0.5000E-01
 CRAZY|    133 613.804822142806      0.1108E-02  0.3672E-04  0.5000E-01
 CRAZY|    134 613.804822027412      0.1107E-02  0.3672E-04  0.5000E-01
 CRAZY|    135 613.804821912023      0.1107E-02  0.3672E-04  0.5000E-01
 CRAZY|    136 613.804821796641      0.1107E-02  0.3672E-04  0.5000E-01
 CRAZY|    137 613.804821681262      0.1107E-02  0.3672E-04  0.5000E-01
 CRAZY|    138 613.804821565892      0.1107E-02  0.3672E-04  0.5000E-01
 CRAZY|    139 613.804821450526      0.1107E-02  0.3671E-04  0.5000E-01
 CRAZY|    140 613.804821335165      0.1107E-02  0.3671E-04  0.5000E-01
 CRAZY|    141 613.804821219810      0.1107E-02  0.3671E-04  0.5000E-01
 CRAZY|    142 613.804821104462      0.1107E-02  0.3671E-04  0.5000E-01
 CRAZY|    143 613.804820989119      0.1107E-02  0.3671E-04  0.5000E-01
[...]
 CRAZY|   1857 613.801985315427      0.2038E-03  0.6712E-05  0.5000E-01
 CRAZY|   1858 613.801985313434      0.2038E-03  0.6713E-05  0.5000E-01
 CRAZY|   1859 613.801985311440      0.2038E-03  0.6713E-05  0.5000E-01
 CRAZY|   1860 613.801985309447      0.2038E-03  0.6713E-05  0.5000E-01
 CRAZY|   1861 613.801985307453      0.2038E-03  0.6713E-05  0.5000E-01
 CRAZY|   1862 613.801985305460      0.2038E-03  0.6713E-05  0.5000E-01
 CRAZY|   1863 613.801985303466      0.2038E-03  0.6713E-05  0.5000E-01
 CRAZY|   1864 613.801985301472      0.2039E-03  0.6713E-05  0.5000E-01
 CRAZY|   1865 613.801985299478      0.2039E-03  0.6714E-05  0.5000E-01
 CRAZY|   1866 613.801985297485      0.2039E-03  0.6714E-05  0.5000E-01
 CRAZY|   1867 613.801985295491      0.2039E-03  0.6714E-05  0.5000E-01
 CRAZY|   1868 613.801985293499      0.2039E-03  0.6714E-05  0.5000E-01
 CRAZY|   1869 613.801985291506      0.2039E-03  0.6714E-05  0.5000E-01
 CRAZY|   1870 613.801985289512      0.2039E-03  0.6714E-05  0.5000E-01
 CRAZY|   1871 613.801985287518      0.2039E-03  0.6714E-05  0.5000E-01
 CRAZY|   1872 613.801985285524      0.2039E-03  0.6714E-05  0.5000E-01
 CRAZY|   1873 613.801985283529      0.2039E-03  0.6715E-05  0.5000E-01
 CRAZY|   1874 613.801985281533      0.2039E-03  0.6715E-05  0.5000E-01
 CRAZY|   1875 613.801985279539      0.2039E-03  0.6715E-05  0.5000E-01
 CRAZY|   1876 613.801985277545      0.2039E-03  0.6715E-05  0.5000E-01
 CRAZY|   1877 613.801985275549      0.2039E-03  0.6715E-05  0.5000E-01
 CRAZY|   1878 613.801985273556      0.2039E-03  0.6715E-05  0.5000E-01
 CRAZY|   1879 613.801985271561      0.2039E-03  0.6715E-05  0.5000E-01
 CRAZY|   1880 613.801985269566      0.2039E-03  0.6716E-05  0.5000E-01
 CRAZY|   1881 613.801985267573      0.2039E-03  0.6716E-05  0.5000E-01
 CRAZY|   1882 613.801985265579      0.2039E-03  0.6716E-05  0.5000E-01
 CRAZY|   1883 613.801985263585      0.2039E-03  0.6716E-05  0.5000E-01
 CRAZY|   1884 613.801985261588      0.2039E-03  0.6716E-05  0.5000E-01
 CRAZY|   1885 613.801985259591      0.2039E-03  0.6716E-05  0.5000E-01
 CRAZY|   1886 613.801985257595      0.2039E-03  0.6716E-05  0.5000E-01
 CRAZY|   1887 613.801985255600      0.2039E-03  0.6717E-05  0.5000E-01
 CRAZY|   1888 613.801985253603      0.2040E-03  0.6717E-05  0.5000E-01
 CRAZY|   1889 613.801985251606      0.2040E-03  0.6717E-05  0.5000E-01
 CRAZY|   1890 613.801985249611      0.2040E-03  0.6717E-05  0.5000E-01
 CRAZY|   1891 613.801985247615      0.2040E-03  0.6717E-05  0.5000E-01
 CRAZY|   1892 613.801985245619      0.2040E-03  0.6717E-05  0.5000E-01
 CRAZY|   1893 613.801985243622      0.2040E-03  0.6717E-05  0.5000E-01
 CRAZY|   1894 613.801985241624      0.2040E-03  0.6718E-05  0.5000E-01
 CRAZY|   1895 613.801985239627      0.2040E-03  0.6718E-05  0.5000E-01
 CRAZY|   1896 613.801985237632      0.2040E-03  0.6718E-05  0.5000E-01
 CRAZY|   1897 613.801985235636      0.2040E-03  0.6718E-05  0.5000E-01
 CRAZY|   1898 613.801985233640      0.2040E-03  0.6718E-05  0.5000E-01
 CRAZY|   1899 613.801985231643      0.2040E-03  0.6718E-05  0.5000E-01
 CRAZY|   1900 613.801985229646      0.2040E-03  0.6718E-05  0.5000E-01
 CRAZY|   1901 613.801985227649      0.2040E-03  0.6718E-05  0.5000E-01
 CRAZY|   1902 613.801985225654      0.2040E-03  0.6719E-05  0.5000E-01
 CRAZY|   1903 613.801985223656      0.2040E-03  0.6719E-05  0.5000E-01
 CRAZY|   1904 613.801985221659      0.2040E-03  0.6719E-05  0.5000E-01
 CRAZY|   1905 613.801985219661      0.2040E-03  0.6719E-05  0.5000E-01
 CRAZY|   1906 613.801985217662      0.2040E-03  0.6719E-05  0.5000E-01
 CRAZY|   1907 613.801985215665      0.2040E-03  0.6719E-05  0.5000E-01
 CRAZY|   1908 613.801985213665      0.2040E-03  0.6719E-05  0.5000E-01
 CRAZY|   1909 613.801985211667      0.2040E-03  0.6720E-05  0.5000E-01
 CRAZY|   1910 613.801985209669      0.2040E-03  0.6720E-05  0.5000E-01
 CRAZY|   1911 613.801985207672      0.2041E-03  0.6720E-05  0.5000E-01
 CRAZY|   1912 613.801985205675      0.2041E-03  0.6720E-05  0.5000E-01
 CRAZY|   1913 613.801985203678      0.2041E-03  0.6720E-05  0.5000E-01
 CRAZY|   1914 613.801985201680      0.2041E-03  0.6720E-05  0.5000E-01
 CRAZY|   1915 613.801985199681      0.2041E-03  0.6720E-05  0.5000E-01
 CRAZY|   1916 613.801985197683      0.2041E-03  0.6721E-05  0.5000E-01
 CRAZY|   1917 613.801985195684      0.2041E-03  0.6721E-05  0.5000E-01
 CRAZY|   1918 613.801985193687      0.2041E-03  0.6721E-05  0.5000E-01
 CRAZY|   1919 613.801985191690      0.2041E-03  0.6721E-05  0.5000E-01
 CRAZY|   1920 613.801985189692      0.2041E-03  0.6721E-05  0.5000E-01
 CRAZY|   1921 613.801985187694      0.2041E-03  0.6721E-05  0.5000E-01
 CRAZY|   1922 613.801985185694      0.2041E-03  0.6721E-05  0.5000E-01
 CRAZY|   1923 613.801985183694      0.2041E-03  0.6722E-05  0.5000E-01
 CRAZY|   1924 613.801985181695      0.2041E-03  0.6722E-05  0.5000E-01
 CRAZY|   1925 613.801985179693      0.2041E-03  0.6722E-05  0.5000E-01
 CRAZY|   1926 613.801985177694      0.2041E-03  0.6722E-05  0.5000E-01
 CRAZY|   1927 613.801985175693      0.2041E-03  0.6722E-05  0.5000E-01
 CRAZY|   1928 613.801985173695      0.2041E-03  0.6722E-05  0.5000E-01
 CRAZY|   1929 613.801985171694      0.2041E-03  0.6722E-05  0.5000E-01
 CRAZY|   1930 613.801985169696      0.2041E-03  0.6722E-05  0.5000E-01
 CRAZY|   1931 613.801985167698      0.2041E-03  0.6723E-05  0.5000E-01
 CRAZY|   1932 613.801985165698      0.2041E-03  0.6723E-05  0.5000E-01
 CRAZY|   1933 613.801985163699      0.2041E-03  0.6723E-05  0.5000E-01
 CRAZY|   1934 613.801985161699      0.2041E-03  0.6723E-05  0.5000E-01
 CRAZY|   1935 613.801985159700      0.2042E-03  0.6723E-05  0.5000E-01
 CRAZY|   1936 613.801985157700      0.2042E-03  0.6723E-05  0.5000E-01
 CRAZY|   1937 613.801985155700      0.2042E-03  0.6723E-05  0.5000E-01
 CRAZY|   1938 613.801985153699      0.2042E-03  0.6724E-05  0.5000E-01
 CRAZY|   1939 613.801985151699      0.2042E-03  0.6724E-05  0.5000E-01
 CRAZY|   1940 613.801985149695      0.2042E-03  0.6724E-05  0.5000E-01
 CRAZY|   1941 613.801985147694      0.2042E-03  0.6724E-05  0.5000E-01
 CRAZY|   1942 613.801985145693      0.2042E-03  0.6724E-05  0.5000E-01
 CRAZY|   1943 613.801985143693      0.2042E-03  0.6724E-05  0.5000E-01
 CRAZY|   1944 613.801985141692      0.2042E-03  0.6724E-05  0.5000E-01
 CRAZY|   1945 613.801985139692      0.2042E-03  0.6725E-05  0.5000E-01
 CRAZY|   1946 613.801985137692      0.2042E-03  0.6725E-05  0.5000E-01
 CRAZY|   1947 613.801985135690      0.2042E-03  0.6725E-05  0.5000E-01
 CRAZY|   1948 613.801985133690      0.2042E-03  0.6725E-05  0.5000E-01
 CRAZY|   1949 613.801985131690      0.2042E-03  0.6725E-05  0.5000E-01
 CRAZY|   1950 613.801985129688      0.2042E-03  0.6725E-05  0.5000E-01
 CRAZY|   1951 613.801985127686      0.2042E-03  0.6725E-05  0.5000E-01
 CRAZY|   1952 613.801985125685      0.2042E-03  0.6725E-05  0.5000E-01
 CRAZY|   1953 613.801985123684      0.2042E-03  0.6726E-05  0.5000E-01
 CRAZY|   1954 613.801985121682      0.2042E-03  0.6726E-05  0.5000E-01
 CRAZY|   1955 613.801985119679      0.2042E-03  0.6726E-05  0.5000E-01
 CRAZY|   1956 613.801985117677      0.2042E-03  0.6726E-05  0.5000E-01
 CRAZY|   1957 613.801985115675      0.2042E-03  0.6726E-05  0.5000E-01
 CRAZY|   1958 613.801985113672      0.2042E-03  0.6726E-05  0.5000E-01
 CRAZY|   1959 613.801985111670      0.2043E-03  0.6726E-05  0.5000E-01
 CRAZY|   1960 613.801985109666      0.2043E-03  0.6727E-05  0.5000E-01
 CRAZY|   1961 613.801985107664      0.2043E-03  0.6727E-05  0.5000E-01
 CRAZY|   1962 613.801985105660      0.2043E-03  0.6727E-05  0.5000E-01
 CRAZY|   1963 613.801985103659      0.2043E-03  0.6727E-05  0.5000E-01
 CRAZY|   1964 613.801985101656      0.2043E-03  0.6727E-05  0.5000E-01
 CRAZY|   1965 613.801985099653      0.2043E-03  0.6727E-05  0.5000E-01
 CRAZY|   1966 613.801985097651      0.2043E-03  0.6727E-05  0.5000E-01
 CRAZY|   1967 613.801985095647      0.2043E-03  0.6728E-05  0.5000E-01
 CRAZY|   1968 613.801985093643      0.2043E-03  0.6728E-05  0.5000E-01
 CRAZY|   1969 613.801985091642      0.2043E-03  0.6728E-05  0.5000E-01
 CRAZY|   1970 613.801985089638      0.2043E-03  0.6728E-05  0.5000E-01
 CRAZY|   1971 613.801985087635      0.2043E-03  0.6728E-05  0.5000E-01
 CRAZY|   1972 613.801985085631      0.2043E-03  0.6728E-05  0.5000E-01
 CRAZY|   1973 613.801985083626      0.2043E-03  0.6728E-05  0.5000E-01
 CRAZY|   1974 613.801985081624      0.2043E-03  0.6728E-05  0.5000E-01
 CRAZY|   1975 613.801985079619      0.2043E-03  0.6729E-05  0.5000E-01
 CRAZY|   1976 613.801985077616      0.2043E-03  0.6729E-05  0.5000E-01
 CRAZY|   1977 613.801985075614      0.2043E-03  0.6729E-05  0.5000E-01
 CRAZY|   1978 613.801985073609      0.2043E-03  0.6729E-05  0.5000E-01
 CRAZY|   1979 613.801985071606      0.2043E-03  0.6729E-05  0.5000E-01
 CRAZY|   1980 613.801985069601      0.2043E-03  0.6729E-05  0.5000E-01
 CRAZY|   1981 613.801985067597      0.2043E-03  0.6729E-05  0.5000E-01
 CRAZY|   1982 613.801985065592      0.2044E-03  0.6730E-05  0.5000E-01
 CRAZY|   1983 613.801985063587      0.2044E-03  0.6730E-05  0.5000E-01
 CRAZY|   1984 613.801985061583      0.2044E-03  0.6730E-05  0.5000E-01
 CRAZY|   1985 613.801985059579      0.2044E-03  0.6730E-05  0.5000E-01
 CRAZY|   1986 613.801985057575      0.2044E-03  0.6730E-05  0.5000E-01
 CRAZY|   1987 613.801985055569      0.2044E-03  0.6730E-05  0.5000E-01
 CRAZY|   1988 613.801985053565      0.2044E-03  0.6730E-05  0.5000E-01
 CRAZY|   1989 613.801985051559      0.2044E-03  0.6731E-05  0.5000E-01
 CRAZY|   1990 613.801985049554      0.2044E-03  0.6731E-05  0.5000E-01
 CRAZY|   1991 613.801985047550      0.2044E-03  0.6731E-05  0.5000E-01
 CRAZY|   1992 613.801985045546      0.2044E-03  0.6731E-05  0.5000E-01
 CRAZY|   1993 613.801985043540      0.2044E-03  0.6731E-05  0.5000E-01
 CRAZY|   1994 613.801985041533      0.2044E-03  0.6731E-05  0.5000E-01
 CRAZY|   1995 613.801985039527      0.2044E-03  0.6731E-05  0.5000E-01
 CRAZY|   1996 613.801985037521      0.2044E-03  0.6731E-05  0.5000E-01
 CRAZY|   1997 613.801985035517      0.2044E-03  0.6732E-05  0.5000E-01
 CRAZY|   1998 613.801985033510      0.2044E-03  0.6732E-05  0.5000E-01
 CRAZY|   1999 613.801985031504      0.2044E-03  0.6732E-05  0.5000E-01
 CRAZY|   2000 613.801985029498      0.2044E-03  0.6732E-05  0.5000E-01
 Crazy Wannier localization not converged after   2000 iterations, switching to jacobi rotations
         Localization by iterative Jacobi rotation
                      Iteration           Tolerance   Time 
                            100          0.4016E-03   0.000
                            200          0.4031E-03   0.000
                            300          0.4046E-03   0.000
                            400          0.4060E-03   0.000
                            500          0.4074E-03   0.000
                            600          0.4087E-03   0.000
                            700          0.4100E-03   0.000
                            800          0.4112E-03   0.000
                            900          0.4123E-03   0.000
                           1000          0.4134E-03   0.000
                           1100          0.4144E-03   0.000
                           1200          0.4154E-03   0.000
                           1300          0.4163E-03   0.000
                           1400          0.4172E-03   0.000
                           1500          0.4180E-03   0.000
                           1600          0.4187E-03   0.000
                           1700          0.4194E-03   0.000
                           1800          0.4200E-03   0.000
                           1900          0.4206E-03   0.000
                           2000          0.4211E-03   0.000
               Localization  for spin   1 converged in   2000 iterations
          Spread Functional     sum_in -w_i ln(|z_in|^2)    sum_in w_i(1-|z_in|^2)
    Total Spread (Berry) :                  16.0353596769       15.5477856921

  Electronic density on regular grids:        -16.0000000093       -0.0000000093
  Core density on regular grids:               16.0000000000        0.0000000000
  Total charge density on r-space grids:       -0.0000000093
  Total charge density g-space grids:          -0.0000000093


 ENERGY| Total FORCE_EVAL ( QS ) energy (a.u.):              -37.767200349130100


 -------------------------------------------------------------------------------
 ----                             MULTIGRID INFO                            ----
 -------------------------------------------------------------------------------
 count for grid        1:          24216          cutoff [a.u.]          175.00
 count for grid        2:          15952          cutoff [a.u.]           58.33
 count for grid        3:          11592          cutoff [a.u.]           19.44
 count for grid        4:           4728          cutoff [a.u.]            6.48
 count for grid        5:            524          cutoff [a.u.]            2.16
 total gridlevel count  :          57012

 -------------------------------------------------------------------------------
 -                                                                             -
 -                         MESSAGE PASSING PERFORMANCE                         -
 -                                                                             -
 -------------------------------------------------------------------------------

 ROUTINE             CALLS  TOT TIME [s]  AVE VOLUME [Bytes]  PERFORMANCE [MB/s]
 MP_Group                6         0.000
 MP_Bcast              337         0.001                 10.                5.63
 MP_Allreduce        24471        26.312                 27.                0.02
 MP_Sync                 5         0.000
 -------------------------------------------------------------------------------


 -------------------------------------------------------------------------------
 -                                                                             -
 -                           R E F E R E N C E S                               -
 -                                                                             -
 -------------------------------------------------------------------------------
 
 CP2K version 2.2.107 (Development Version), the CP2K developers group (2011).
 CP2K is freely available from http://cp2k.berlios.de/ .

 Grimme, S. 
 JOURNAL OF COMPUTATIONAL CHEMISTRY, 27 (15), 1787-1799 (2006). 
 Semiempirical GGA-type density functional constructed with a long-range
 dispersion correction.
 http://dx.doi.org/10.1002/jcc.20495


 Krack, M. 
 THEORETICAL CHEMISTRY ACCOUNTS, 114 (1-3), 145-152 (2005). 
 Pseudopotentials for H to Kr optimized for gradient-corrected
 exchange-correlation functionals.
 http://dx.doi.org/10.1007/s00214-005-0655-y


 VandeVondele, J; Krack, M; Mohamed, F; Parrinello, M; Chassaing, T;
 Hutter, J. COMPUTER PHYSICS COMMUNICATIONS, 167 (2), 103-128 (2005). 
 QUICKSTEP: Fast and accurate density functional calculations using a
 mixed Gaussian and plane waves approach.
 http://dx.doi.org/10.1016/j.cpc.2004.12.014


 Frigo, M; Johnson, SG. 
 PROCEEDINGS OF THE IEEE, 93 (2), 216-231 (2005). 
 The design and implementation of FFTW3.
 http://dx.doi.org/10.1109/JPROC.2004.840301


 VandeVondele, J; Hutter, J. 
 JOURNAL OF CHEMICAL PHYSICS, 118 (10), 4365-4369 (2003). 
 An efficient orbital transformation method for electronic structure
 calculations.
 http://dx.doi.org/10.1063/1.1543154


 Martyna, GJ; Tuckerman, ME. 
 JOURNAL OF CHEMICAL PHYSICS, 110 (6), 2810-2821 (1999). 
 A reciprocal space based method for treating long range interactions in
 ab initio and force-field-based calculations in clusters.
 http://dx.doi.org/10.1063/1.477923


 Hartwigsen, C; Goedecker, S; Hutter, J. 
 PHYSICAL REVIEW B, 58 (7), 3641-3662 (1998). 
 Relativistic separable dual-space Gaussian pseudopotentials from H to Rn.
 http://dx.doi.org/10.1103/PhysRevB.58.3641


 Lippert, G; Hutter, J; Parrinello, M. 
 MOLECULAR PHYSICS, 92 (3), 477-487 (1997). 
 A hybrid Gaussian and plane wave density functional scheme.
 http://dx.doi.org/10.1080/002689797170220


 Perdew, JP; Burke, K; Ernzerhof, M. 
 PHYSICAL REVIEW LETTERS, 77 (18), 3865-3868 (1996). 
 Generalized gradient approximation made simple.
 http://dx.doi.org/10.1103/PhysRevLett.77.3865


 Goedecker, S; Teter, M; Hutter, J. 
 PHYSICAL REVIEW B, 54 (3), 1703-1710 (1996). 
 Separable dual-space Gaussian pseudopotentials.
 http://dx.doi.org/10.1103/PhysRevB.54.1703


 -------------------------------------------------------------------------------
 -                                                                             -
 -                                T I M I N G                                  -
 -                                                                             -
 -------------------------------------------------------------------------------
 SUBROUTINE                       CALLS  ASD         SELF TIME        TOTAL TIME
                                              AVERAGE  MAXIMUM  AVERAGE  MAXIMUM
 CP2K                                 1  1.0    0.190    0.190  241.114  241.114
 rep_env_calc_e_f                     4  2.0    0.044    0.044  238.002  238.002
 qs_forces                            4  3.0    0.001    0.001  211.688  211.688
 qs_energies_scf                      4  4.0    0.095    0.095  199.115  199.115
 scf_env_do_scf                       4  5.0    0.008    0.008  188.851  188.851
 qs_ks_build_kohn_sham_matrix        52  7.8    1.024    1.024  172.539  172.539
 scf_env_do_scf_inner_loop           48  6.0    0.031    0.031  169.381  169.381
 qs_ks_update_qs_env                 53  7.0    0.001    0.001  160.002  160.002
 fft_wrap_pw1pw2                    993 10.6    0.014    0.014  137.076  137.076
 qs_vxc_create                       52  8.8    0.043    0.043  135.154  135.154
 xc_vxc_pw_create                    52  9.8    2.304    2.304  135.112  135.112
 fft_wrap_pw1pw2_180                576 11.7    7.387    7.387  131.359  131.359
 fft3d_s                            995 12.6   97.954   97.954   97.957   97.957
 xc_rho_set_and_dset_create          52 10.8    3.072    3.072   79.231   79.231
 xc_functional_eval                  52 11.8    0.026    0.026   33.776   33.776
 pbe_lda_eval                        52 12.8   33.750   33.750   33.750   33.750
 qs_rho_update_rho                   52  7.1    0.001    0.001   30.616   30.616
 calculate_rho_elec                  52  8.1    1.333    1.333   30.615   30.615
 density_rs2pw                       52  9.1    0.053    0.053   28.463   28.463
 rep_env_sync                         7  2.6   26.291   26.291   26.291   26.291
 init_scf_loop                        5  6.0    0.053    0.053   19.461   19.461
 integrate_v_rspace                  52  8.8    1.052    1.052   17.204   17.204
 potential_pw2rs                     52  9.8    0.173    0.173   16.144   16.144
 pw_gather_s                        473 12.3   15.823   15.823   15.823   15.823
 pw_scatter_s                       520 12.8   15.476   15.476   15.476   15.476
 qs_ks_update_qs_env_forces           4  4.0    0.000    0.000   12.540   12.540
 pw_derive                          312 11.3    8.188    8.188    8.188    8.188
 pw_copy                            624 10.8    6.104    6.104    6.104    6.104
 pw_poisson_solve                    52  8.8    2.714    2.714    5.520    5.520
 -------------------------------------------------------------------------------

  **** **** ******  **  PROGRAM ENDED AT                 2011-08-14 10:30:32.087
 ***** ** ***  *** **   PROGRAM RAN ON                                  r11i3n15
 **    ****   ******    PROGRAM RAN BY                                          
 ***** **    ** ** **   PROGRAM PROCESS ID                                   704
  **** **  *******  **  PROGRAM STOPPED IN   /usr/local/u/jmlarkin/CP2K/CdSe/vib
