 vasp.5.2.2 15Apr09 complex 
 executed on             LinuxIFC date 2011.06.27  01:00:03
 running on   64 nodes
 distr:  one band on    1 nodes,   64 groups


--------------------------------------------------------------------------------------------------------


 INCAR:
 POTCAR:    US Cd                                 
 POTCAR:    US Se                                 
 POTCAR:    US P                                  
 POTCAR:    US C                                  
 POTCAR:    US O                                  
 POTCAR:    US H                                  
 POTCAR:    US Cd                                 
   VRHFIN =Cd : s2 d10                                                          
   LEXCH  = 91                                                                  
   EATOM  =  1507.8696 eV,  110.8253 Ry                                         
   TITEL  = US Cd                                                               
   LULTRA =        T    use ultrasoft PP ?                                      
   IUNSCR =        1    unscreen: 0-lin 1-nonlin 2-no                           
   RPACOR =    1.180    partial core radius                                     
   POMASS =  112.411; ZVAL   =   12.000    mass and valenz                      
   RCORE  =    2.980    outmost cutoff radius                                   
   RWIGS  =    2.980; RWIGS  =    1.577    wigner-seitz radius (au A)           
   ENMAX  =  167.929; ENMIN  =  125.946 eV                                      
   EAUG   =  275.449                                                            
                                                                                
   RCLOC  =    2.054    cutoff for local pot                                    
   LCOR   =        T    correct aug charges                                     
   RMAX   =    3.558    core radius for proj-oper                               
   QCUT   =   -3.513; QGAM   =    7.026    optimization parameters              
                                                                                
   Description                                                                  
     l     E      TYP  RCUT    TYP  RCUT                                        
     2   .000      7  2.420    23  2.980                                        
     2   .000      7  2.420    23  2.980                                        
     0   .000     15  2.660    23  2.660                                        
     0   .000     15  2.660    23  2.660                                        
     1  -.200     15  2.660    23  2.980                                        
     1   .000     15  2.660    23  2.980                                        
     3   .000      7   .000     0   .000                                        
  local pseudopotential read in
  partial core-charges read in
  atomic valenz-charges read in
  non local Contribution for L=           2  read in
    real space projection operators read in
  non local Contribution for L=           2  read in
    real space projection operators read in
  non local Contribution for L=           0  read in
    real space projection operators read in
  non local Contribution for L=           0  read in
    real space projection operators read in
  non local Contribution for L=           1  read in
    real space projection operators read in
  non local Contribution for L=           1  read in
    real space projection operators read in
    augmentation charges read in
 
   number of l-projection  operators is LMAX  =           6
   number of lm-projection operators is LMMAX =          18
 
 POTCAR:    US Se                                 
   VRHFIN =Se: s2p4                                                             
   LEXCH  = 91                                                                  
   EATOM  =   310.2335 eV,   22.8015 Ry                                         
   TITEL  = US Se                                                               
   LULTRA =        T    use ultrasoft PP ?                                      
   IUNSCR =        1    unscreen: 0-lin 1-nonlin 2-no                           
   RPACOR =    1.580    partial core radius                                     
   POMASS =   78.960; ZVAL   =    6.000    mass and valenz                      
   RCORE  =    2.480    outmost cutoff radius                                   
   RWIGS  =    2.480; RWIGS  =    1.312    wigner-seitz radius (au A)           
   ENMAX  =  155.175; ENMIN  =  116.381 eV                                      
   EAUG   =  244.760                                                            
                                                                                
   ICORE  =        3    local potential                                         
   LCOR   =        T    correct aug charges                                     
   RMAX   =    3.701    core radius for proj-oper                               
   QCUT   =   -3.377; QGAM   =    6.754    optimization parameters              
                                                                                
   Description                                                                  
     l     E      TYP  RCUT    TYP  RCUT                                        
     0   .000     15  2.210    23  2.480                                        
     0   .000     15  2.210    23  2.480                                        
     1   .000     15  2.210    23  2.480                                        
     1   .000     15  2.210    23  2.480                                        
     2   .000      7  2.480     7  2.480                                        
     3  -.100      7  2.480     7  2.480                                        
  local pseudopotential read in
  partial core-charges read in
  atomic valenz-charges read in
  non local Contribution for L=           0  read in
    real space projection operators read in
  non local Contribution for L=           0  read in
    real space projection operators read in
  non local Contribution for L=           1  read in
    real space projection operators read in
  non local Contribution for L=           1  read in
    real space projection operators read in
  non local Contribution for L=           2  read in
    real space projection operators read in
    augmentation charges read in
 
   number of l-projection  operators is LMAX  =           5
   number of lm-projection operators is LMMAX =          13
 
 POTCAR:    US P                                  
   VRHFIN =P : s2p3                                                             
   LEXCH  = 91                                                                  
   EATOM  =   186.0002 eV,   13.6706 Ry                                         
   TITEL  = US P                                                                
   LULTRA =        T    use ultrasoft PP ?                                      
   IUNSCR =        1    unscreen: 0-lin 1-nonlin 2-no                           
   RPACOR =    1.480    partial core radius                                     
   POMASS =   30.974; ZVAL   =    5.000    mass and valenz                      
   RCORE  =    2.330    outmost cutoff radius                                   
   RWIGS  =    2.330; RWIGS  =    1.233    wigner-seitz radius (au A)           
   ENMAX  =  173.498; ENMIN  =  130.123 eV                                      
   EAUG   =  272.091                                                            
                                                                                
   ICORE  =        2    local potential                                         
   LCOR   =        T    correct aug charges                                     
   RMAX   =    3.500    core radius for proj-oper                               
   QCUT   =   -3.571; QGAM   =    7.142    optimization parameters              
                                                                                
   Description                                                                  
     l     E      TYP  RCUT    TYP  RCUT                                        
     0   .000     15  2.080    23  2.330                                        
     0   .000     15  2.080    23  2.330                                        
     1   .000     15  2.080    23  2.330                                        
     1   .000     15  2.080    23  2.330                                        
     2   .000      7  2.330     7  2.330                                        
  local pseudopotential read in
  partial core-charges read in
  atomic valenz-charges read in
  non local Contribution for L=           0  read in
    real space projection operators read in
  non local Contribution for L=           0  read in
    real space projection operators read in
  non local Contribution for L=           1  read in
    real space projection operators read in
  non local Contribution for L=           1  read in
    real space projection operators read in
    augmentation charges read in
 
   number of l-projection  operators is LMAX  =           4
   number of lm-projection operators is LMMAX =           8
 
 POTCAR:    US C                                  
   VRHFIN =C: s2p2                                                              
   LEXCH  = 91                                                                  
   EATOM  =   146.0548 eV,   10.7347 Ry                                         
   TITEL  = US C                                                                
   LULTRA =        T    use ultrasoft PP ?                                      
   IUNSCR =        0    unscreen: 0-lin 1-nonlin 2-no                           
   RPACOR =     .000    partial core radius                                     
   POMASS =   12.011; ZVAL   =    4.000    mass and valenz                      
   RCORE  =    1.810    outmost cutoff radius                                   
   RWIGS  =    1.630; RWIGS  =     .863    wigner-seitz radius (au A)           
   ENMAX  =  286.744; ENMIN  =  215.058 eV                                      
   EAUG   =  550.000                                                            
                                                                                
   ICORE  =        2    local potential                                         
   LCOR   =        T    correct aug charges                                     
   RMAX   =    2.723    core radius for proj-oper                               
   QCUT   =   -4.591; QGAM   =    9.182    optimization parameters              
                                                                                
   Description                                                                  
     l     E      TYP  RCUT    TYP  RCUT                                        
     0   .000     15  1.320    23  1.630                                        
     0   .000     15  1.320    23  1.630                                        
     1   .000     15  1.320    23  1.810                                        
     1   .000     15  1.320    23  1.810                                        
     2   .000      7  1.810     7  1.810                                        
  local pseudopotential read in
  atomic valenz-charges read in
  non local Contribution for L=           0  read in
    real space projection operators read in
  non local Contribution for L=           0  read in
    real space projection operators read in
  non local Contribution for L=           1  read in
    real space projection operators read in
  non local Contribution for L=           1  read in
    real space projection operators read in
    augmentation charges read in
 
   number of l-projection  operators is LMAX  =           4
   number of lm-projection operators is LMMAX =           8
 
 POTCAR:    US O                                  
   VRHFIN =O: s2p4                                                              
   LEXCH  = 91                                                                  
   EATOM  =   429.1268 eV,   31.5399 Ry                                         
   TITEL  = US O                                                                
   LULTRA =        T    use ultrasoft PP ?                                      
   IUNSCR =        0    unscreen: 0-lin 1-nonlin 2-no                           
   RPACOR =     .000    partial core radius                                     
   POMASS =   16.000; ZVAL   =    6.000    mass and valenz                      
   RCORE  =    1.550    outmost cutoff radius                                   
   RWIGS  =    1.400; RWIGS  =     .741    wigner-seitz radius (au A)           
   ENMAX  =  395.994; ENMIN  =  296.995 eV                                      
   EAUG   =  700.000                                                            
                                                                                
   ICORE  =        2    local potential                                         
   LCOR   =        T    correct aug charges                                     
   RMAX   =    2.317    core radius for proj-oper                               
   QCUT   =   -5.395; QGAM   =   10.790    optimization parameters              
                                                                                
   Description                                                                  
     l     E      TYP  RCUT    TYP  RCUT                                        
     0   .000     15  1.130    23  1.400                                        
     0   .000     15  1.130    23  1.400                                        
     1   .000     15  1.130    23  1.550                                        
     1   .000     15  1.130    23  1.550                                        
     2   .000      7  1.550     7  1.550                                        
  local pseudopotential read in
  atomic valenz-charges read in
  non local Contribution for L=           0  read in
    real space projection operators read in
  non local Contribution for L=           0  read in
    real space projection operators read in
  non local Contribution for L=           1  read in
    real space projection operators read in
  non local Contribution for L=           1  read in
    real space projection operators read in
    augmentation charges read in
 
   number of l-projection  operators is LMAX  =           4
   number of lm-projection operators is LMMAX =           8
 
 POTCAR:    US H                                  
   VRHFIN =H: ultrasoft test                                                    
   LEXCH  = 91                                                                  
   EATOM  =    12.5294 eV,     .9209 Ry                                         
   TITEL  = US H                                                                
   LULTRA =        T    use ultrasoft PP ?                                      
   IUNSCR =        0    unscreen: 0-lin 1-nonlin 2-no                           
   RPACOR =     .000    partial core radius                                     
   POMASS =    1.000; ZVAL   =    1.000    mass and valenz                      
   RCORE  =    1.250    outmost cutoff radius                                   
   RWIGS  =     .570; RWIGS  =     .302    wigner-seitz radius (au A)           
   ENMAX  =  200.000; ENMIN  =  200.000 eV  200 eV set by hand                  
   EAUG   =  400.000    set by hand                                             
                                                                                
   RCLOC  =     .654    cutoff for local pot                                    
   LCOR   =        T    correct aug charges                                     
   RMAX   =    3.000    core radius for proj-oper                               
   QCUT   =   -3.834; QGAM   =    7.668    optimization parameters              
                                                                                
   Description                                                                  
     l     E      TYP  RCUT    TYP  RCUT                                        
     0   .000     15   .800    23  1.250                                        
     0   .500     15   .800    23  1.250                                        
     1  -.200     15   .800    23  1.250                                        
  local pseudopotential read in
  atomic valenz-charges read in
  non local Contribution for L=           0  read in
    real space projection operators read in
  non local Contribution for L=           0  read in
    real space projection operators read in
  non local Contribution for L=           1  read in
    real space projection operators read in
    augmentation charges read in
 
   number of l-projection  operators is LMAX  =           3
   number of lm-projection operators is LMMAX =           5
 
 Optimization of the real space projectors (new method)

 maximal supplied QI-value         = 12.66
 optimisation between [QCUT,QGAM] = [  8.86, 17.73] = [ 22.00, 87.98] Ry 
 Optimized for a Real-space Cutoff    1.96 Angstroem

   l    n(q)    QCUT    max X(q) W(low)/X(q) W(high)/X(q)  e(spline) 
   2      9     8.863     8.992    0.11E-03    0.37E-04    0.16E-06
   2      9     8.863     1.780    0.16E-03    0.52E-04    0.19E-06
   0     10     8.863    13.960    0.22E-04    0.29E-05    0.76E-07
   0     10     8.863     3.344    0.53E-04    0.28E-05    0.11E-06
   1     10     8.863     6.276    0.36E-04    0.46E-04    0.80E-07
   1     10     8.863     1.674    0.62E-04    0.74E-04    0.12E-06
 Optimization of the real space projectors (new method)

 maximal supplied QI-value         = 15.12
 optimisation between [QCUT,QGAM] = [  8.77, 17.69] = [ 21.53, 87.61] Ry 
 Optimized for a Real-space Cutoff    1.55 Angstroem

   l    n(q)    QCUT    max X(q) W(low)/X(q) W(high)/X(q)  e(spline) 
   0      8     8.768     4.338    0.79E-04    0.11E-03    0.34E-07
   0      8     8.768     5.127    0.75E-04    0.86E-04    0.48E-07
   1      8     8.768     1.829    0.21E-03    0.64E-04    0.93E-07
   1      8     8.768     1.623    0.16E-03    0.19E-03    0.82E-07
   2      7     8.768     0.937    0.10E-03    0.11E-03    0.50E-07
 Optimization of the real space projectors (new method)

 maximal supplied QI-value         = 16.06
 optimisation between [QCUT,QGAM] = [  8.83, 17.67] = [ 21.86, 87.42] Ry 
 Optimized for a Real-space Cutoff    1.46 Angstroem

   l    n(q)    QCUT    max X(q) W(low)/X(q) W(high)/X(q)  e(spline) 
   0      8     8.834    13.298    0.14E-03    0.15E-04    0.33E-07
   0      8     8.834     2.029    0.23E-03    0.21E-04    0.52E-07
   1      7     8.834     4.889    0.74E-04    0.18E-03    0.59E-07
   1      7     8.834     1.117    0.15E-03    0.32E-03    0.97E-07
 Optimization of the real space projectors (new method)

 maximal supplied QI-value         = 20.79
 optimisation between [QCUT,QGAM] = [  8.73, 17.67] = [ 21.34, 87.42] Ry 
 Optimized for a Real-space Cutoff    1.59 Angstroem

   l    n(q)    QCUT    max X(q) W(low)/X(q) W(high)/X(q)  e(spline) 
   0      8     8.731     3.198    0.37E-04    0.19E-03    0.23E-06
   0      8     8.731     4.320    0.74E-04    0.27E-03    0.26E-06
   1      8     8.731     4.119    0.11E-03    0.48E-04    0.31E-06
   1      8     8.731     0.834    0.18E-03    0.11E-03    0.35E-06
 Optimization of the real space projectors (new method)

 maximal supplied QI-value         = 24.38
 optimisation between [QCUT,QGAM] = [  8.78, 17.55] = [ 21.57, 86.27] Ry 
 Optimized for a Real-space Cutoff    1.90 Angstroem

   l    n(q)    QCUT    max X(q) W(low)/X(q) W(high)/X(q)  e(spline) 
   0     10     8.776     2.154    0.71E-04    0.71E-04    0.47E-06
   0     10     8.776     3.268    0.75E-04    0.55E-04    0.73E-06
   1     10     8.776     4.382    0.13E-03    0.32E-03    0.49E-06
   1     10     8.776     0.177    0.20E-03    0.48E-03    0.63E-06
 Optimization of the real space projectors (new method)

 maximal supplied QI-value         = 30.24
 optimisation between [QCUT,QGAM] = [  8.77, 17.54] = [ 21.53, 86.12] Ry 
 Optimized for a Real-space Cutoff    1.79 Angstroem

   l    n(q)    QCUT    max X(q) W(low)/X(q) W(high)/X(q)  e(spline) 
   0      9     8.768     1.240    0.12E-03    0.35E-03    0.47E-06
   0      9     8.768     0.155    0.19E-03    0.51E-03    0.57E-06
   1      9     8.768     0.746    0.17E-04    0.12E-03    0.68E-06
  US Cd                                 :
 energy of atom  1       EATOM=-1507.8696
 kinetic energy error for atom=    0.0026 (will be added to EATOM!!)
  US Se                                 :
 energy of atom  2       EATOM= -310.2335
 kinetic energy error for atom=    0.0015 (will be added to EATOM!!)
  US P                                  :
 energy of atom  3       EATOM= -186.0002
 kinetic energy error for atom=    0.0020 (will be added to EATOM!!)
  US C                                  :
 energy of atom  4       EATOM= -146.0548
 kinetic energy error for atom=    0.0121 (will be added to EATOM!!)
  US O                                  :
 energy of atom  5       EATOM= -429.1268
 kinetic energy error for atom=    0.7949 (will be added to EATOM!!)
  US H                                  :
 energy of atom  6       EATOM=  -12.5294
 kinetic energy error for atom=    0.0147 (will be added to EATOM!!)
 
 
 POSCAR: CdSe                                    
  positions in direct lattice
  No initial velocities read in
 exchange correlation table for  LEXCH =        7
   RHO(1)=    0.500       N(1)  =     2000
   RHO(2)=  100.500       N(2)  =     4000
 


--------------------------------------------------------------------------------------------------------


 ion  position               nearest neighbor table
   1  0.194  0.957  0.078-  65 2.04  66 2.15   7 2.38  64 2.48  19 2.83  32 3.53
   2  0.801  0.023  0.014-  35 1.93  34 1.96  36 2.45   3 2.85   4 3.02  10 3.07  41 3.11   6 3.24

   3  0.824  0.996  0.135-  39 2.03  41 2.11  35 2.31   6 2.49   2 2.85  14 3.54  15 3.70
   4  0.865  0.018  0.913-  36 2.11  42 2.25  34 2.47  13 2.86  43 2.92  10 3.01   2 3.02  12 3.30

   5  0.880  0.153  0.014-  37 1.98  36 2.12  38 2.42   8 2.60   6 2.95  13 3.17
   6  0.852  0.088  0.118-  39 2.00  37 2.13   3 2.49  35 2.68  44 2.73   5 2.95  36 3.21   2 3.24
                            15 3.36  13 3.64
   7  0.208  0.029  0.009-  66 2.01  69 2.11  65 2.16   1 2.38  59 2.51  67 3.09  32 3.28  19 3.61

   8  0.940  0.189  0.080-  38 1.97   5 2.60  37 2.66  48 2.67  17 2.98  18 3.34
   9  0.092  0.848  0.134-  61 2.17  64 2.18  62 2.30  33 2.84  28 2.88  24 3.16  58 3.30  25 3.56

  10  0.852  0.921  0.991-  41 2.04  40 2.13  34 2.34  11 2.71  43 2.73   4 3.01   2 3.07  21 3.59

  11  0.866  0.851  0.083-  40 2.03  41 2.14  51 2.39  21 2.60  10 2.71  14 3.40
  12  0.954  0.954  0.889-  43 1.96  42 2.23  52 2.44  16 2.85  23 3.11   4 3.30  13 3.46  26 3.48
                            22 3.78
  13  0.926  0.041  0.004-  44 1.88  43 2.22  47 2.57  36 2.59   4 2.86   5 3.17  16 3.22  14 3.23
                            42 3.45  12 3.46  18 3.56   6 3.64
  14  0.929  0.957  0.116-  45 1.92  44 2.21  54 2.56  15 2.58  41 2.70  43 3.16  13 3.23  25 3.32
                            11 3.40  23 3.52   3 3.54
  15  0.928  0.028  0.200-  45 2.14  49 2.42  44 2.45  14 2.58  39 2.72  18 3.26   6 3.36   3 3.70
                            25 3.74
  16  0.986  0.060  0.889-  47 1.91  42 2.46  55 2.61  12 2.85  26 3.10  13 3.22  17 3.48  30 3.49
                            27 3.72
  17  0.005  0.167  0.986-  48 2.12  47 2.21  38 2.52  50 2.55   8 2.98  30 3.46  16 3.48  18 3.53
                            31 3.76  27 3.78
  18  0.999  0.084  0.116-  49 1.94  48 2.23  44 2.61  57 2.64  29 2.84  47 3.17  15 3.26  20 3.32
                             8 3.34  27 3.49  17 3.53  13 3.56
  19  0.143  0.912  0.987-  64 2.11  63 2.16  65 2.62  56 2.67   1 2.83  33 3.34  22 3.53   7 3.61

  20  0.087  0.153  0.134-  46 2.09  48 2.44  60 2.57  32 2.70  31 2.95  57 3.01  29 3.15  18 3.32

  21  0.926  0.815  0.014-  51 1.94  53 2.51  11 2.60  40 2.69  24 3.25  23 3.41  10 3.59
  22  0.051  0.871  0.912-  52 2.08  53 2.37  63 2.51  56 2.64  33 2.73  23 2.79  26 2.82  19 3.53
                            12 3.78
  23  0.000  0.913  0.004-  54 1.88  53 2.17  43 2.57  56 2.60  22 2.79  12 3.11  24 3.39  33 3.40
                            21 3.41  52 3.46  28 3.51  14 3.52  26 3.61
  24  0.996  0.824  0.120-  62 2.14  54 2.30  51 2.58  61 2.62  25 3.07   9 3.16  21 3.25  53 3.29
                            23 3.39  33 3.44
  25  0.009  0.921  0.203-  62 2.21  54 2.54  58 2.59  45 2.67  28 2.87  24 3.07  14 3.32  29 3.52
                             9 3.56  15 3.74
  26  0.060  0.981  0.889-  56 1.92  55 2.08  52 2.29  22 2.82  27 2.96  16 3.10  30 3.28  12 3.48
                            23 3.61
  27  0.070  0.041  0.004-  57 1.88  56 2.17  59 2.59  47 2.63  30 2.65  26 2.96  28 3.23  31 3.25
                            55 3.45  18 3.49  32 3.69  16 3.72  17 3.78
  28  0.070  0.958  0.116-  58 1.94  57 2.16  64 2.48  54 2.61  25 2.87   9 2.88  29 2.89  56 3.18
                            27 3.23  23 3.51
  29  0.060  0.046  0.200-  58 2.16  57 2.46  46 2.49  49 2.59  18 2.84  28 2.89  20 3.15  32 3.50
                            25 3.52
  30  0.088  0.106  0.912-  55 2.04  50 2.11  59 2.34  27 2.65  31 2.67  47 3.26  26 3.28  17 3.46
                            16 3.49
  31  0.121  0.153  0.010-  60 2.03  50 2.16  59 2.22  30 2.67  20 2.95  32 3.08  27 3.25  17 3.76

  32  0.149  0.082  0.116-  46 2.07  60 2.22  66 2.53  20 2.70  57 2.72  31 3.08  59 3.16   7 3.28
                            29 3.50   1 3.53  27 3.69
  33  0.074  0.815  0.014-  61 1.88  63 2.20  53 2.66  22 2.73   9 2.84  64 3.18  19 3.34  23 3.40
                            24 3.44
  34  0.800  0.973  0.945-   2 1.96  10 2.34   4 2.47
  35  0.776  0.051  0.087-   2 1.93   3 2.31   6 2.68
  36  0.855  0.083  0.973-   4 2.11   5 2.12   2 2.45  13 2.59   6 3.21
  37  0.859  0.170  0.096-   5 1.98   6 2.13   8 2.66
  38  0.936  0.215  0.996-   8 1.97   5 2.42  17 2.52
  39  0.844  0.050  0.197-   6 2.00   3 2.03  15 2.72
  40  0.844  0.837  0.998-  11 2.03  10 2.13  21 2.69  41 3.07
  41  0.850  0.935  0.082-  10 2.04   3 2.11  11 2.14  14 2.70  40 3.07   2 3.11
  42  0.920  0.023  0.849-  12 2.23   4 2.25  16 2.46  13 3.45
  43  0.931  0.957  0.972-  12 1.96  13 2.22  23 2.57  10 2.73   4 2.92  14 3.16
  44  0.927  0.042  0.090-  13 1.88  14 2.21  15 2.45  18 2.61   6 2.73
  45  0.928  0.943  0.202-  14 1.92  15 2.14  25 2.67
  46  0.122  0.107  0.196-  32 2.07  20 2.09  29 2.49  60 3.10
  47  0.997  0.080  0.972-  16 1.91  17 2.21  13 2.57  27 2.63  18 3.17  30 3.26
  48  0.021  0.162  0.080-  17 2.12  18 2.23  20 2.44   8 2.67
  49  0.986  0.089  0.201-  18 1.94  15 2.42  29 2.59
  50  0.078  0.185  0.944-  30 2.11  31 2.16  17 2.55
  51  0.922  0.789  0.097-  21 1.94  11 2.39  24 2.58
  52  0.019  0.916  0.849-  22 2.08  26 2.29  12 2.44  23 3.46
  53  0.997  0.831  0.971-  23 2.17  22 2.37  21 2.51  33 2.66  24 3.29
  54  0.999  0.912  0.089-  23 1.88  24 2.30  25 2.54  14 2.56  28 2.61
  55  0.062  0.056  0.848-  30 2.04  26 2.08  16 2.61  27 3.45
  56  0.069  0.959  0.972-  26 1.92  27 2.17  23 2.60  22 2.64  19 2.67  28 3.18
  57  0.073  0.041  0.089-  27 1.88  28 2.16  29 2.46  18 2.64  32 2.72  20 3.01  58 3.13
  58  0.083  0.965  0.202-  28 1.94  29 2.16  25 2.59  57 3.13   9 3.30
  59  0.143  0.076  0.973-  31 2.22  30 2.34   7 2.51  27 2.59  32 3.16
  60  0.159  0.165  0.083-  31 2.03  32 2.22  20 2.57  46 3.10
  61  0.066  0.779  0.088-  33 1.88   9 2.17  24 2.62  62 3.01
  62  0.035  0.839  0.197-  24 2.14  25 2.21   9 2.30  61 3.01
  63  0.121  0.838  0.947-  19 2.16  33 2.20  22 2.51
  64  0.129  0.903  0.080-  19 2.11   9 2.18  28 2.48   1 2.48  33 3.18
  65  0.221  0.945  0.995-   1 2.04   7 2.16  19 2.62
  66  0.219  0.035  0.099-   7 2.01   1 2.15  32 2.53
  67  0.277  0.114  0.014-  70 1.23  69 1.26  71 1.49  72 1.67  68 1.72   7 3.09
  68  0.324  0.139  0.988-  76 0.87  74 0.93  75 1.06  67 1.72
  69  0.261  0.074  0.987-  67 1.26   7 2.11
  70  0.293  0.102  0.062-  72 0.92  67 1.23
  71  0.242  0.153  0.017-  73 0.92  67 1.49
  72  0.274  0.077  0.077-  70 0.92  67 1.67
  73  0.219  0.153  0.042-  71 0.92
  74  0.337  0.166  0.009-  68 0.93
  75  0.350  0.113  0.982-  68 1.06
  76  0.314  0.153  0.955-  68 0.87
 
  LATTYP: Found a simple orthorhombic cell.
 ALAT       =    22.0000000000
 B/A-ratio  =     1.1363636364
 C/A-ratio  =     1.4545454545
  
  Lattice vectors:
  
 A1 = (   0.0000000000,   0.0000000000, -22.0000000000)
 A2 = (   0.0000000000, -25.0000000000,   0.0000000000)
 A3 = ( -32.0000000000,   0.0000000000,   0.0000000000)
 Subroutine PRICEL returns:
 Original cell was already a primitive cell.
 

Analysis of symmetry for initial positions (statically):

 Routine SETGRP: Setting up the symmetry group for a 
 simple orthorhombic supercell.


 Subroutine GETGRP returns: Found  1 space group operations
 (whereof  1 operations were pure point group operations)
 out of a pool of  8 trial point group operations.


The static configuration has the point symmetry C_1 .

Analysis of symmetry for dynamics (positions and initial velocities):

 Subroutine DYNSYM returns: Found  1 space group operations
 (whereof  1 operations were pure point group operations)
 out of a pool of  1 trial space group operations
 (whereof  1 operations were pure point group operations)
 and found also     1 'primitive' translations


The dynamic configuration has the point symmetry C_1 .
 
 
 KPOINTS: Gamma-point only                        
  k-points in reciprocal lattice


--------------------------------------------------------------------------------------------------------




 Dimension of arrays:
   k-points           NKPTS =      1   k-points in BZ     NKDIM =      1   number of bands    NBANDS=    384
   number of dos      NEDOS =    301   number of ions     NIONS =     76
   non local maximal  LDIM  =      6   non local SUM 2l+1 LMDIM =     18
   total plane-waves  NPLWV = ******
   max r-space proj   IRMAX =   6297   max aug-charges    IRDMAX=  27816
   dimension x,y,z NGX =   192 NGY =  144 NGZ =  126
   dimension x,y,z NGXF=   384 NGYF=  288 NGZF=  252
   support grid    NGXF=   384 NGYF=  288 NGZF=  252
   ions per type =              33  33   1   1   3   5
 NGX,Y,Z   is equivalent  to a cutoff of   9.97,  9.58,  9.52 a.u.
 NGXF,Y,Z  is equivalent  to a cutoff of  19.95, 19.15, 19.04 a.u.


 I would recommend the setting:
   dimension x,y,z NGX =   181 NGY =  141 NGZ =  124
 SYSTEM =  CdSe                                    
 POSCAR =  CdSe                                    

 Startparameter for this run:
   NWRITE =      2    write-flag & timer
   PREC   = accura    medium, high low
   ISTART =      0    job   : 0-new  1-cont  2-samecut
   ICHARG =      2    charge: 1-file 2-atom 10-const
   ISPIN  =      1    spin polarized calculation?
   LNONCOLLINEAR =      F non collinear calculations
   LSORBIT =      F    spin-orbit coupling
   INIWAV =      1    electr: 0-lowe 1-rand  2-diag
   LASPH  =      F    aspherical Exc in radial PAW
   METAGGA=      F    non-selfconsistent MetaGGA calc.

 Electronic Relaxation 1
   ENCUT  =  300.0 eV  22.05 Ry    4.70 a.u.  45.19 35.31 31.07*2*pi/ulx,y,z
   ENINI  =  300.0     initial cutoff
   ENAUG  =  700.0 eV  augmentation charge cutoff
   NELM   =     40;   NELMIN=  4; NELMDL= -8     # of ELM steps 
   EDIFF  = 0.1E-05   stopping-criterion for ELM
   LREAL  =      T    real-space projection
   LCOMPAT=      F    compatible to vasp.4.4
   LREAL_COMPAT= F    compatible to vasp.4.5.1-3
   GGA_COMPAT  = T    GGA compatible to vasp.4.4-vasp.4.6
   LMAXPAW     = -100 max onsite density
   LMAXMIX     =    2 max onsite mixed and CHGCAR
   VOSKOWN=      0    Vosko Wilk Nusair interpolation
   ROPT   =   -0.00025  -0.00025  -0.00025  -0.00025
   ROPT   =   -0.00025  -0.00025
 Ionic relaxation
   EDIFFG = -.1E-01   stopping-criterion for IOM
   NSW    =     25    number of steps for IOM
   NBLOCK =      1;   KBLOCK =     25    inner block; outer block 
   IBRION =      2    ionic relax: 0-MD 1-quasi-New 2-CG
   NFREE  =      2    steps in history (QN), initial steepest desc. (CG)
   ISIF   =      2    stress and relaxation
   IWAVPR =     11    prediction:  0-non 1-charg 2-wave 3-comb
   ISYM   =      1    0-nonsym 1-usesym 2-fastsym
   LCORR  =      T    Harris-Foulkes like correction to forces

   POTIM  = 0.5000    time-step for ionic-motion
   TEIN   =    0.0    initial temperature
   TEBEG  =    0.0;   TEEND  =   0.0 temperature during run
   SMASS  =  -3.00    Nose mass-parameter (am)
   estimated Nose-frequenzy (Omega)   =  0.10E-29 period in steps =****** mass=  -0.234E-25a.u.
   NPACO  =    256;   APACO  = 16.0  distance and # of slots for P.C.
   PSTRESS=    0.0 pullay stress

  Mass of Ions in am
   POMASS = 112.41 78.96 30.97 12.01
   POMASS =  16.00  1.00
  Ionic Valenz
   ZVAL   =  12.00  6.00  5.00  4.00
   ZVAL   =   6.00  1.00
  Atomic Wigner-Seitz radii
   RWIGS  =  -1.00 -1.00 -1.00 -1.00
   RWIGS  =  -1.00 -1.00
   NELECT =     626.0000    total number of electrons
   NUPDOWN=      -1.0000    fix difference up-down

 DOS related values:
   EMIN   =  10.00;   EMAX   =-10.00  energy-range for DOS
   EFERMI =   0.00
   ISMEAR =     0;   SIGMA  =   0.01  broadening in eV -4-tet -1-fermi 0-gaus

 Electronic relaxation 2 (details)
   IALGO  =     48    algorithm
   LDIAG  =      T    sub-space diagonalisation
   IMIX   =      4    mixing-type and parameters
     AMIX     =   0.80;   BMIX     =  1.00
     AMIX_MAG =   3.20;   BMIX_MAG =  1.00
     AMIN     =   0.10
     WC   =   100.;   INIMIX=   1;  MIXPRE=   1

 Intra band minimization:
   WEIMIN = 0.0010     energy-eigenvalue tresh-hold
   EBREAK =  0.67E-09  absolut break condition
   DEPER  =   0.30     relativ break condition  

   TIME   =   0.40     timestep for ELM

  volume/ion in A,a.u.               =     231.58      1562.77
  Fermi-wavevector in a.u.,A,eV,Ry     =   0.538388  1.017406  3.943807  0.289862
  Thomas-Fermi vector in A             =   1.564594
 
 Write flags
   LWAVE  =      T    write WAVECAR
   LCHARG =      T    write CHGCAR
   LVTOT  =      F    write LOCPOT, local potential
   LELF   =      F    write electronic localiz. function (ELF)
   LORBIT =      0    0 simple, 1 ext, 2 COOP (PROOUT)


 Dipole corrections
   LMONO  =      F    monopole corrections only (constant potential shift)
   LDIPOL =      F    correct potential (dipole corrections)
   IDIPOL =      0    1-x, 2-y, 3-z, 4-all directions 
   EPSILON=  1.0000000 bulk dielectric constant

 Exchange correlation treatment:
   GGA     =    --    GGA type
   LEXCH   =     7    internal setting for exchange type
   VOSKOWN=      0    Vosko Wilk Nusair interpolation
   LHFCALC =     F    Hartree Fock is set to
   LHFONE  =     F    Hartree Fock one center treatment
   AEXX    =    0.0000 exact exchange contribution

 Linear response parameters
   LEPSILON=     F    determine dielectric tensor
   LRPA    =     F    only Hartree local field effects (RPA)
   LNABLA  =     F    use nabla operator in PAW spheres
   LVEL    =     F    velocity operator in full k-point grid
   LINTERFAST=   F  fast interpolation
   KINTER  =     0    interpolate to denser k-point grid
   CSHIFT  =0.1000    complex shift for real part using Kramers Kronig
   OMEGAMAX=  -1.0    maximum frequency

 Orbital magnetization related:
   ORBITALMAG=     F  switch on orbital magnetization
   LCHIMAG   =     F  perturbation theory with respect to B field



--------------------------------------------------------------------------------------------------------


 conjugate gradient relaxation of ions
 charge density and potential will be updated during run
 non-spin polarized calculation
 RMM-DIIS sequential band-by-band
 perform sub-space diagonalisation
    before iterative eigenvector-optimisation
 modified Broyden-mixing scheme, WC =      100.0
 initial mixing is a Kerker type mixing with AMIX =  0.8000 and BMIX =      1.0000
 Hartree-type preconditioning will be used
 using additional bands           71
 real space projection scheme for non local part
 use partial core corrections
 calculate Harris-corrections to forces 
   (improved forces if not selfconsistent)
 use gradient corrections 
 use of overlap-Matrix (Vanderbilt PP)
 Gauss-broadening in eV      SIGMA  =   0.01


--------------------------------------------------------------------------------------------------------


  energy-cutoff  :      300.00
  volume of cell :    17600.00
      direct lattice vectors                 reciprocal lattice vectors
    32.000000000  0.000000000  0.000000000     0.031250000  0.000000000  0.000000000
     0.000000000 25.000000000  0.000000000     0.000000000  0.040000000  0.000000000
     0.000000000  0.000000000 22.000000000     0.000000000  0.000000000  0.045454545

  length of vectors
    32.000000000 25.000000000 22.000000000     0.031250000  0.040000000  0.045454545


 
 k-points in units of 2pi/SCALE and weight: Gamma-point only                        
   0.00000000  0.00000000  0.00000000       1.000
 
 k-points in reciprocal lattice and weights: Gamma-point only                        
   0.00000000  0.00000000  0.00000000       1.000
 
 position of ions in fractional coordinates (direct lattice) 
   0.19418380  0.95742627  0.07823287
   0.80121643  0.02342667  0.01364353
   0.82384937  0.99622060  0.13503347
   0.86510287  0.01836653  0.91251150
   0.87961440  0.15274787  0.01367413
   0.85202353  0.08788730  0.11818527
   0.20758133  0.02879610  0.00910647
   0.94025993  0.18905450  0.08043927
   0.09215850  0.84757137  0.13437033
   0.85189043  0.92114317  0.99080657
   0.86610957  0.85139737  0.08294803
   0.95380473  0.95390117  0.88901863
   0.92574127  0.04089860  0.00431600
   0.92937230  0.95669300  0.11562890
   0.92753557  0.02833757  0.20000390
   0.98584870  0.06036460  0.88886677
   0.00508033  0.16687133  0.98644587
   0.99943077  0.08352113  0.11550643
   0.14330903  0.91197923  0.98656897
   0.08705170  0.15285077  0.13421633
   0.92577173  0.81526507  0.01390840
   0.05108400  0.87081093  0.91221613
   0.00030057  0.91250913  0.00389213
   0.99573767  0.82416987  0.12041533
   0.00948260  0.92144560  0.20310327
   0.06048027  0.98118740  0.88891390
   0.06964370  0.04143153  0.00402583
   0.06986257  0.95785647  0.11596677
   0.06027970  0.04630993  0.19952527
   0.08767297  0.10622090  0.91208620
   0.12111740  0.15340093  0.00969070
   0.14928217  0.08191343  0.11598410
   0.07400640  0.81489807  0.01373400
   0.80020093  0.97329700  0.94496677
   0.77617173  0.05114627  0.08710010
   0.85513010  0.08271023  0.97262703
   0.85903120  0.17035570  0.09604120
   0.93611870  0.21506057  0.99601977
   0.84430507  0.04998460  0.19725597
   0.84413610  0.83665017  0.99820070
   0.85009943  0.93453443  0.08214023
   0.92013400  0.02341840  0.84879063
   0.93124520  0.95716930  0.97199053
   0.92686917  0.04194643  0.08964323
   0.92781993  0.94287533  0.20165307
   0.12180273  0.10743203  0.19587903
   0.99665103  0.07993110  0.97151997
   0.02100887  0.16213493  0.07993763
   0.98644450  0.08915407  0.20124820
   0.07781677  0.18495090  0.94356140
   0.92163417  0.78887283  0.09659170
   0.01855320  0.91600543  0.84879620
   0.99735287  0.83091240  0.97101677
   0.99887397  0.91175690  0.08924827
   0.06238927  0.05617523  0.84846720
   0.06937723  0.95941937  0.97155370
   0.07260643  0.04082310  0.08932333
   0.08305493  0.96505823  0.20169553
   0.14298827  0.07582660  0.97286927
   0.15853070  0.16501920  0.08327407
   0.06607030  0.77890420  0.08781650
   0.03510507  0.83931583  0.19724510
   0.12144247  0.83820827  0.94656173
   0.12936387  0.90281250  0.07992207
   0.22088987  0.94484633  0.99541410
   0.21862620  0.03536283  0.09862040
   0.27726360  0.11402940  0.01351927
   0.32409503  0.13906840  0.98756047
   0.26102650  0.07422143  0.98744460
   0.29300803  0.10173853  0.06238797
   0.24213027  0.15332620  0.01664340
   0.27386363  0.07742043  0.07674393
   0.21906343  0.15285913  0.04171027
   0.33732710  0.16615347  0.00895660
   0.34997937  0.11323497  0.98221963
   0.31354303  0.15295647  0.95495550
 
 position of ions in cartesian coordinates  (Angst):
   6.21388160 23.93565668  1.72112307
  25.63892586  0.58566668  0.30015773
  26.36317974 24.90551500  2.97073627
  27.68329174  0.45916332 20.07525300
  28.14766080  3.81869668  0.30083093
  27.26475306  2.19718250  2.60007587
   6.64260266  0.71990250  0.20034227
  30.08831786  4.72636250  1.76966387
   2.94907200 21.18928418  2.95614733
  27.26049386 23.02857917 21.79774447
  27.71550614 21.28493417  1.82485673
  30.52175146 23.84752917 19.55840993
  29.62372054  1.02246500  0.09495200
  29.73991360 23.91732500  2.54383580
  29.68113814  0.70843918  4.40008580
  31.54715840  1.50911500 19.55506887
   0.16257066  4.17178333 21.70180907
  31.98178454  2.08802832  2.54114153
   4.58588906 22.79948082 21.70451727
   2.78565440  3.82126917  2.95275933
  29.62469546 20.38162667  0.30598480
   1.63468800 21.77027333 20.06875493
   0.00961814 22.81272833  0.08562693
  31.86360534 20.60424668  2.64913733
   0.30344320 23.03614000  4.46827187
   1.93536854 24.52968500 19.55610580
   2.22859840  1.03578833  0.08856833
   2.23560214 23.94641167  2.55126887
   1.92895040  1.15774833  4.38955587
   2.80553494  2.65552250 20.06589640
   3.87575680  3.83502333  0.21319540
   4.77702934  2.04783582  2.55165020
   2.36820480 20.37245168  0.30214800
  25.60642986 24.33242500 20.78926887
  24.83749546  1.27865668  1.91620220
  27.36416320  2.06775583 21.39779473
  27.48899840  4.25889250  2.11290640
  29.95579840  5.37651418 21.91243487
  27.01776214  1.24961500  4.33963127
  27.01235520 20.91625418 21.96041540
  27.20318186 23.36336083  1.80708513
  29.44428800  0.58546000 18.67339393
  29.79984640 23.92923250 21.38379173
  29.65981334  1.04866082  1.97215113
  29.69023786 23.57188333  4.43636747
   3.89768746  2.68580083  4.30933873
  31.89283306  1.99827750 21.37343927
   0.67228374  4.05337332  1.75862793
  31.56622400  2.22885168  4.42746040
   2.49013654  4.62377250 20.75835080
  29.49229334 19.72182082  2.12501740
   0.59370240 22.90013583 18.67351640
  31.91529174 20.77281000 21.36236887
  31.96396694 22.79392250  1.96346187
   1.99645654  1.40438082 18.66627840
   2.22007146 23.98548418 21.37418140
   2.32340586  1.02057750  1.96511333
   2.65775786 24.12645583  4.43730173
   4.57562454  1.89566500 21.40312387
   5.07298240  4.12548000  1.83202947
   2.11424960 19.47260500  1.93196300
   1.12336214 20.98289583  4.33939220
   3.88615894 20.95520667 20.82435813
   4.13964374 22.57031250  1.75828547
   7.06847574 23.62115833 21.89911020
   6.99603840  0.88407083  2.16964880
   8.87243520  2.85073500  0.29742387
  10.37104106  3.47671000 21.72633027
   8.35284800  1.85553582 21.72378120
   9.37625706  2.54346333  1.37253527
   7.74816854  3.83315500  0.36615480
   8.76363626  1.93551083  1.68836653
   7.01002986  3.82147832  0.91762587
  10.79446720  4.15383668  0.19704520
  11.19933974  2.83087417 21.60883193
  10.03337706  3.82391168 21.00902100
 


--------------------------------------------------------------------------------------------------------


 k-point  1 :  0.00000.00000.0000  plane waves:  207695

 maximum and minimum number of plane-waves per node :  207695 207695

 maximum number of plane-waves:  207695
 maximal index in each direction: 
   IXMAX= 45   IYMAX= 35   IZMAX= 31
   IXMIN=-45   IYMIN=-35   IZMIN=-31

 NGX is ok and might be reduce to 182
 NGY is ok and might be reduce to 142
 NGZ is ok and might be reduce to 126

 serial   3D FFT for wavefunctions
 parallel 3D FFT for charge:
    minimum data exchange during FFTs selected (reduces bandwidth)


 total amount of memory used by VASP on root node 782104. kBytes
========================================================================

   base      :    30000. kBytes
   nonlr-proj:    53678. kBytes
   fftplans  :    57109. kBytes
   grid      :   620089. kBytes
   one-center:     1181. kBytes
   wavefun   :    20047. kBytes
 
 Broyden mixing: mesh for mixing (old mesh)
   NGX = 91   NGY = 71   NGZ = 63
  (NGX  =384   NGY  =288   NGZ  =252)
  gives a total of 407043 points

 initial charge density was supplied:
 charge density of overlapping atoms calculated
 number of electron  626.0000000 magnetization 
 keeping initial charge density in first step


--------------------------------------------------------------------------------------------------------


 Maximum index for non-local projection operator         6088
 Maximum index for augmentation-charges         1055 (set IRDMAX)


--------------------------------------------------------------------------------------------------------


 First call to EWALD:  gamma=   0.068
 Maximum number of real-space cells 2x 3x 3
 Maximum number of reciprocal cells 3x 3x 2

    FEWALD:  cpu time    0.03: real time    0.03
   RESPFUN:  cpu time    0.00: real time    0.00


----------------------------------------- Iteration    1(   1)  ---------------------------------------


    POTLOK:  cpu time    2.88: real time    2.89
    SETDIJ:  cpu time    0.03: real time    0.03
    EDDIAG:  cpu time    4.54: real time    4.59
  RMM-DIIS:  cpu time    5.58: real time    5.58
    ORTHCH:  cpu time    1.16: real time    1.15
       DOS:  cpu time    0.00: real time    0.00
    --------------------------------------------
      LOOP:  cpu time   14.18: real time   14.27

 eigenvalue-minimisations  :   384
 total energy-change (2. order) : 0.1032428E+05  (-0.8306161E+04)
 number of electron  626.0000000 magnetization 
 augmentation part   626.0000000 magnetization 

 Free energy of the ion-electron system (eV)
  ---------------------------------------------------
  alpha Z        PSCENC =       376.81987606
  Ewald energy   TEWEN  =    197787.89421200
  -1/2 Hartree   DENC   =   -241680.06712004
  -exchange  EXHF       =         0.00000000
  -V(xc)+E(xc)   XCENC  =    -10326.92692605
  PAW double counting   =         0.00000000        0.00000000
  entropy T*S    EENTRO =         0.00000000
  eigenvalues    EBANDS =      2489.68472596
  atomic energy  EATOM  =     61676.87796612
  ---------------------------------------------------
  free energy    TOTEN  =     10324.28273405 eV

  energy without entropy =    10324.28273405  energy(sigma->0) =    10324.28273405


--------------------------------------------------------------------------------------------------------




----------------------------------------- Iteration    1(   2)  ---------------------------------------


    EDDIAG:  cpu time    4.65: real time    4.65
  RMM-DIIS:  cpu time    5.57: real time    5.57
    ORTHCH:  cpu time    1.18: real time    1.18
       DOS:  cpu time    0.00: real time    0.00
    --------------------------------------------
      LOOP:  cpu time   11.40: real time   11.41

 eigenvalue-minimisations  :   384
 total energy-change (2. order) :-0.1332105E+04  (-0.1326036E+04)
 number of electron  626.0000000 magnetization 
 augmentation part   626.0000000 magnetization 

 Free energy of the ion-electron system (eV)
  ---------------------------------------------------
  alpha Z        PSCENC =       376.81987606
  Ewald energy   TEWEN  =    197787.89421200
  -1/2 Hartree   DENC   =   -241680.06712004
  -exchange  EXHF       =         0.00000000
  -V(xc)+E(xc)   XCENC  =    -10326.92692605
  PAW double counting   =         0.00000000        0.00000000
  entropy T*S    EENTRO =        -0.00987448
  eigenvalues    EBANDS =      1157.58935026
  atomic energy  EATOM  =     61676.87796612
  ---------------------------------------------------
  free energy    TOTEN  =      8992.17748386 eV

  energy without entropy =     8992.18735834  energy(sigma->0) =     8992.18242110


--------------------------------------------------------------------------------------------------------




----------------------------------------- Iteration    1(   3)  ---------------------------------------


    EDDIAG:  cpu time    4.58: real time    4.58
  RMM-DIIS:  cpu time    5.56: real time    5.56
    ORTHCH:  cpu time    1.19: real time    1.19
       DOS:  cpu time    0.00: real time    0.00
    --------------------------------------------
      LOOP:  cpu time   11.34: real time   11.34

 eigenvalue-minimisations  :   384
 total energy-change (2. order) :-0.2956357E+03  (-0.3098185E+03)
 number of electron  626.0000000 magnetization 
 augmentation part   626.0000000 magnetization 

 Free energy of the ion-electron system (eV)
  ---------------------------------------------------
  alpha Z        PSCENC =       376.81987606
  Ewald energy   TEWEN  =    197787.89421200
  -1/2 Hartree   DENC   =   -241680.06712004
  -exchange  EXHF       =         0.00000000
  -V(xc)+E(xc)   XCENC  =    -10326.92692605
  PAW double counting   =         0.00000000        0.00000000
  entropy T*S    EENTRO =        -0.00246493
  eigenvalues    EBANDS =       861.94628158
  atomic energy  EATOM  =     61676.87796612
  ---------------------------------------------------
  free energy    TOTEN  =      8696.54182473 eV

  energy without entropy =     8696.54428966  energy(sigma->0) =     8696.54305720


--------------------------------------------------------------------------------------------------------




----------------------------------------- Iteration    1(   4)  ---------------------------------------


    EDDIAG:  cpu time    4.60: real time    4.61
  RMM-DIIS:  cpu time    5.58: real time    5.58
    ORTHCH:  cpu time    1.18: real time    1.18
       DOS:  cpu time    0.00: real time    0.00
    --------------------------------------------
      LOOP:  cpu time   11.36: real time   11.37

 eigenvalue-minimisations  :   384
 total energy-change (2. order) :-0.6778511E+02  (-0.7768004E+02)
 number of electron  626.0000000 magnetization 
 augmentation part   626.0000000 magnetization 

 Free energy of the ion-electron system (eV)
  ---------------------------------------------------
  alpha Z        PSCENC =       376.81987606
  Ewald energy   TEWEN  =    197787.89421200
  -1/2 Hartree   DENC   =   -241680.06712004
  -exchange  EXHF       =         0.00000000
  -V(xc)+E(xc)   XCENC  =    -10326.92692605
  PAW double counting   =         0.00000000        0.00000000
  entropy T*S    EENTRO =        -0.00000363
  eigenvalues    EBANDS =       794.15870568
  atomic energy  EATOM  =     61676.87796612
  ---------------------------------------------------
  free energy    TOTEN  =      8628.75671014 eV

  energy without entropy =     8628.75671377  energy(sigma->0) =     8628.75671195


--------------------------------------------------------------------------------------------------------




----------------------------------------- Iteration    1(   5)  ---------------------------------------


    EDDIAG:  cpu time    4.57: real time    4.57
  RMM-DIIS:  cpu time    5.57: real time    5.57
    ORTHCH:  cpu time    1.21: real time    1.21
       DOS:  cpu time    0.00: real time    0.00
    --------------------------------------------
      LOOP:  cpu time   11.36: real time   11.36

 eigenvalue-minimisations  :   384
 total energy-change (2. order) :-0.2164604E+02  (-0.2120205E+02)
 number of electron  626.0000000 magnetization 
 augmentation part   626.0000000 magnetization 

 Free energy of the ion-electron system (eV)
  ---------------------------------------------------
  alpha Z        PSCENC =       376.81987606
  Ewald energy   TEWEN  =    197787.89421200
  -1/2 Hartree   DENC   =   -241680.06712004
  -exchange  EXHF       =         0.00000000
  -V(xc)+E(xc)   XCENC  =    -10326.92692605
  PAW double counting   =         0.00000000        0.00000000
  entropy T*S    EENTRO =        -0.01983137
  eigenvalues    EBANDS =       772.53249282
  atomic energy  EATOM  =     61676.87796612
  ---------------------------------------------------
  free energy    TOTEN  =      8607.11066953 eV

  energy without entropy =     8607.13050090  energy(sigma->0) =     8607.12058522


--------------------------------------------------------------------------------------------------------




----------------------------------------- Iteration    1(   6)  ---------------------------------------


    EDDIAG:  cpu time    4.62: real time    4.62
  RMM-DIIS:  cpu time   10.99: real time   10.99
    ORTHCH:  cpu time    1.19: real time    1.19
       DOS:  cpu time    0.00: real time    0.00
    --------------------------------------------
      LOOP:  cpu time   16.80: real time   16.81

 eigenvalue-minimisations  :   814
 total energy-change (2. order) :-0.1269656E+02  (-0.1148052E+02)
 number of electron  626.0000000 magnetization 
 augmentation part   626.0000000 magnetization 

 Free energy of the ion-electron system (eV)
  ---------------------------------------------------
  alpha Z        PSCENC =       376.81987606
  Ewald energy   TEWEN  =    197787.89421200
  -1/2 Hartree   DENC   =   -241680.06712004
  -exchange  EXHF       =         0.00000000
  -V(xc)+E(xc)   XCENC  =    -10326.92692605
  PAW double counting   =         0.00000000        0.00000000
  entropy T*S    EENTRO =        -0.00976240
  eigenvalues    EBANDS =       759.82586469
  atomic energy  EATOM  =     61676.87796612
  ---------------------------------------------------
  free energy    TOTEN  =      8594.41411038 eV

  energy without entropy =     8594.42387278  energy(sigma->0) =     8594.41899158


--------------------------------------------------------------------------------------------------------




----------------------------------------- Iteration    1(   7)  ---------------------------------------


    EDDIAG:  cpu time    4.58: real time    4.58
  RMM-DIIS:  cpu time   10.30: real time   10.30
    ORTHCH:  cpu time    1.19: real time    1.19
       DOS:  cpu time    0.00: real time    0.00
    --------------------------------------------
      LOOP:  cpu time   16.07: real time   16.07

 eigenvalue-minimisations  :   695
 total energy-change (2. order) :-0.2113092E+01  (-0.1899557E+01)
 number of electron  626.0000000 magnetization 
 augmentation part   626.0000000 magnetization 

 Free energy of the ion-electron system (eV)
  ---------------------------------------------------
  alpha Z        PSCENC =       376.81987606
  Ewald energy   TEWEN  =    197787.89421200
  -1/2 Hartree   DENC   =   -241680.06712004
  -exchange  EXHF       =         0.00000000
  -V(xc)+E(xc)   XCENC  =    -10326.92692605
  PAW double counting   =         0.00000000        0.00000000
  entropy T*S    EENTRO =        -0.01584178
  eigenvalues    EBANDS =       757.71885230
  atomic energy  EATOM  =     61676.87796612
  ---------------------------------------------------
  free energy    TOTEN  =      8592.30101862 eV

  energy without entropy =     8592.31686039  energy(sigma->0) =     8592.30893950


--------------------------------------------------------------------------------------------------------




----------------------------------------- Iteration    1(   8)  ---------------------------------------


    EDDIAG:  cpu time    4.60: real time    4.61
  RMM-DIIS:  cpu time    7.89: real time    7.89
    ORTHCH:  cpu time    1.17: real time    1.17
       DOS:  cpu time    0.00: real time    0.00
    CHARGE:  cpu time    3.29: real time    3.31
    MIXING:  cpu time    0.03: real time    0.03
    --------------------------------------------
      LOOP:  cpu time   16.99: real time   17.01

 eigenvalue-minimisations  :   507
 total energy-change (2. order) :-0.6538432E+00  (-0.2624175E+00)
 number of electron  626.0000000 magnetization 
 augmentation part     0.6890071 magnetization 

 Broyden mixing:
  rms(total) = 0.32239E+02    rms(broyden)= 0.32169E+02
  rms(prec ) = 0.54645E+02
  weight for this iteration     100.00

 Free energy of the ion-electron system (eV)
  ---------------------------------------------------
  alpha Z        PSCENC =       376.81987606
  Ewald energy   TEWEN  =    197787.89421200
  -1/2 Hartree   DENC   =   -241680.06712004
  -exchange  EXHF       =         0.00000000
  -V(xc)+E(xc)   XCENC  =    -10326.92692605
  PAW double counting   =         0.00000000        0.00000000
  entropy T*S    EENTRO =        -0.02221947
  eigenvalues    EBANDS =       757.07138677
  atomic energy  EATOM  =     61676.87796612
  ---------------------------------------------------
  free energy    TOTEN  =      8591.64717539 eV

  energy without entropy =     8591.66939486  energy(sigma->0) =     8591.65828512


--------------------------------------------------------------------------------------------------------




----------------------------------------- Iteration    1(   9)  ---------------------------------------


    POTLOK:  cpu time    2.57: real time    2.57
    SETDIJ:  cpu time    0.03: real time    0.03
    EDDIAG:  cpu time    4.60: real time    4.60
  RMM-DIIS:  cpu time   16.01: real time   16.01
    ORTHCH:  cpu time    1.18: real time    1.18
       DOS:  cpu time    0.00: real time    0.00
    CHARGE:  cpu time    3.37: real time    3.37
    MIXING:  cpu time    0.03: real time    0.03
    --------------------------------------------
      LOOP:  cpu time   27.79: real time   27.79

 eigenvalue-minimisations  :  1166
 total energy-change (2. order) : 0.5650194E+05  (-0.1703468E+03)
 number of electron  626.0000001 magnetization 
 augmentation part     2.7433719 magnetization 

 Broyden mixing:
  rms(total) = 0.16838E+02    rms(broyden)= 0.16829E+02
  rms(prec ) = 0.41807E+02
  weight for this iteration     100.00

 eigenvalues of (default mixing * dielectric matrix)
  average eigenvalue GAMMA=   1.4234
  1.4234

 Free energy of the ion-electron system (eV)
  ---------------------------------------------------
  alpha Z        PSCENC =       376.81987606
  Ewald energy   TEWEN  =    197787.89421200
  -1/2 Hartree   DENC   =   -183144.59012509
  -exchange  EXHF       =         0.00000000
  -V(xc)+E(xc)   XCENC  =    -10710.74268768
  PAW double counting   =         0.00000000        0.00000000
  entropy T*S    EENTRO =        -0.04607704
  eigenvalues    EBANDS =      -892.62122372
  atomic energy  EATOM  =     61676.87796612
  ---------------------------------------------------
  free energy    TOTEN  =     65093.59194066 eV

  energy without entropy =    65093.63801770  energy(sigma->0) =    65093.61497918


--------------------------------------------------------------------------------------------------------




----------------------------------------- Iteration    1(  10)  ---------------------------------------


    POTLOK:  cpu time    2.64: real time    2.65
    SETDIJ:  cpu time    0.03: real time    0.03
    EDDIAG:  cpu time    4.54: real time    4.55
  RMM-DIIS:  cpu time   19.01: real time   19.01
    ORTHCH:  cpu time    1.19: real time    1.19
       DOS:  cpu time    0.00: real time    0.00
    CHARGE:  cpu time    3.10: real time    3.10
    MIXING:  cpu time    0.03: real time    0.03
    --------------------------------------------
      LOOP:  cpu time   30.55: real time   30.56

 eigenvalue-minimisations  :  1408
 total energy-change (2. order) : 0.6568021E+05  (-0.9106616E+03)
 number of electron  626.0000003 magnetization 
 augmentation part     8.2013779 magnetization 

 Broyden mixing:
  rms(total) = 0.11162E+02    rms(broyden)= 0.11158E+02
  rms(prec ) = 0.31908E+02
  weight for this iteration     100.00

 eigenvalues of (default mixing * dielectric matrix)
  average eigenvalue GAMMA=   1.9222
  1.4145  2.4300

 Free energy of the ion-electron system (eV)
  ---------------------------------------------------
  alpha Z        PSCENC =       376.81987606
  Ewald energy   TEWEN  =    197787.89421200
  -1/2 Hartree   DENC   =   -115085.02461700
  -exchange  EXHF       =         0.00000000
  -V(xc)+E(xc)   XCENC  =    -10790.13192814
  PAW double counting   =         0.00000000        0.00000000
  entropy T*S    EENTRO =        -0.00139571
  eigenvalues    EBANDS =     -3192.63584893
  atomic energy  EATOM  =     61676.87796612
  ---------------------------------------------------
  free energy    TOTEN  =    130773.79826440 eV

  energy without entropy =   130773.79966011  energy(sigma->0) =   130773.79896226


--------------------------------------------------------------------------------------------------------




----------------------------------------- Iteration    1(  11)  ---------------------------------------


    POTLOK:  cpu time    2.64: real time    2.64
    SETDIJ:  cpu time    0.03: real time    0.03
    EDDIAG:  cpu time    4.56: real time    4.57
  RMM-DIIS:  cpu time   17.86: real time   17.86
    ORTHCH:  cpu time    1.19: real time    1.19
       DOS:  cpu time    0.00: real time    0.00
    CHARGE:  cpu time    3.10: real time    3.09
    MIXING:  cpu time    0.03: real time    0.03
    --------------------------------------------
      LOOP:  cpu time   29.40: real time   29.40

 eigenvalue-minimisations  :  1392
 total energy-change (2. order) : 0.9374199E+05  (-0.2339210E+04)
 number of electron  626.0000004 magnetization 
 augmentation part    13.3053369 magnetization 

 Broyden mixing:
  rms(total) = 0.58309E+01    rms(broyden)= 0.58053E+01
  rms(prec ) = 0.11685E+02
  weight for this iteration     100.00

 eigenvalues of (default mixing * dielectric matrix)
  average eigenvalue GAMMA=   2.5666
  4.8516  1.4241  1.4241

 Free energy of the ion-electron system (eV)
  ---------------------------------------------------
  alpha Z        PSCENC =       376.81987606
  Ewald energy   TEWEN  =    197787.89421200
  -1/2 Hartree   DENC   =    -14701.63017139
  -exchange  EXHF       =         0.00000000
  -V(xc)+E(xc)   XCENC  =    -11057.91565215
  PAW double counting   =         0.00000000        0.00000000
  entropy T*S    EENTRO =        -0.00089718
  eigenvalues    EBANDS =     -9566.25692191
  atomic energy  EATOM  =     61676.87796612
  ---------------------------------------------------
  free energy    TOTEN  =    224515.78841156 eV

  energy without entropy =   224515.78930874  energy(sigma->0) =   224515.78886015


--------------------------------------------------------------------------------------------------------




----------------------------------------- Iteration    1(  12)  ---------------------------------------


    POTLOK:  cpu time    2.64: real time    2.64
    SETDIJ:  cpu time    0.03: real time    0.03
    EDDIAG:  cpu time    4.56: real time    4.56
  RMM-DIIS:  cpu time   17.87: real time   17.87
    ORTHCH:  cpu time    1.18: real time    1.19
       DOS:  cpu time    0.00: real time    0.00
    CHARGE:  cpu time    3.22: real time    3.22
    MIXING:  cpu time    0.04: real time    0.04
    --------------------------------------------
      LOOP:  cpu time   29.53: real time   29.54

 eigenvalue-minimisations  :  1394
 total energy-change (2. order) : 0.8163072E+04  (-0.1598747E+04)
 number of electron  626.0000005 magnetization 
 augmentation part    15.9878796 magnetization 

 Broyden mixing:
  rms(total) = 0.33128E+01    rms(broyden)= 0.32212E+01
  rms(prec ) = 0.53347E+01
  weight for this iteration     100.00

 eigenvalues of (default mixing * dielectric matrix)
  average eigenvalue GAMMA=   2.7627
  6.7062  1.2141  1.2141  1.9162

 Free energy of the ion-electron system (eV)
  ---------------------------------------------------
  alpha Z        PSCENC =       376.81987606
  Ewald energy   TEWEN  =    197787.89421200
  -1/2 Hartree   DENC   =     -2556.68865110
  -exchange  EXHF       =         0.00000000
  -V(xc)+E(xc)   XCENC  =    -11187.26336035
  PAW double counting   =         0.00000000        0.00000000
  entropy T*S    EENTRO =        -0.00058240
  eigenvalues    EBANDS =    -13418.77885921
  atomic energy  EATOM  =     61676.87796612
  ---------------------------------------------------
  free energy    TOTEN  =    232678.86060112 eV

  energy without entropy =   232678.86118353  energy(sigma->0) =   232678.86089232


--------------------------------------------------------------------------------------------------------




----------------------------------------- Iteration    1(  13)  ---------------------------------------


    POTLOK:  cpu time    2.63: real time    2.63
    SETDIJ:  cpu time    0.03: real time    0.03
    EDDIAG:  cpu time    4.56: real time    4.56
  RMM-DIIS:  cpu time   17.92: real time   17.92
    ORTHCH:  cpu time    1.18: real time    1.18
       DOS:  cpu time    0.00: real time    0.00
    CHARGE:  cpu time    3.20: real time    3.19
    MIXING:  cpu time    0.02: real time    0.03
    --------------------------------------------
      LOOP:  cpu time   29.55: real time   29.55

 eigenvalue-minimisations  :  1383
 total energy-change (2. order) : 0.4315107E+03  (-0.6093730E+03)
 number of electron  626.0000005 magnetization 
 augmentation part    16.9770779 magnetization 

 Broyden mixing:
  rms(total) = 0.17221E+01    rms(broyden)= 0.16889E+01
  rms(prec ) = 0.30709E+01
  weight for this iteration     100.00

 eigenvalues of (default mixing * dielectric matrix)
  average eigenvalue GAMMA=   2.7952
  7.7806  2.4336  0.9941  1.3839  1.3839

 Free energy of the ion-electron system (eV)
  ---------------------------------------------------
  alpha Z        PSCENC =       376.81987606
  Ewald energy   TEWEN  =    197787.89421200
  -1/2 Hartree   DENC   =     -1351.37046494
  -exchange  EXHF       =         0.00000000
  -V(xc)+E(xc)   XCENC  =    -11149.10682388
  PAW double counting   =         0.00000000        0.00000000
  entropy T*S    EENTRO =        -0.00427662
  eigenvalues    EBANDS =    -14230.73918074
  atomic energy  EATOM  =     61676.87796612
  ---------------------------------------------------
  free energy    TOTEN  =    233110.37130800 eV

  energy without entropy =   233110.37558461  energy(sigma->0) =   233110.37344631


--------------------------------------------------------------------------------------------------------




----------------------------------------- Iteration    1(  14)  ---------------------------------------


    POTLOK:  cpu time    2.62: real time    2.62
    SETDIJ:  cpu time    0.03: real time    0.03
    EDDIAG:  cpu time    4.56: real time    4.56
  RMM-DIIS:  cpu time   18.29: real time   18.28
    ORTHCH:  cpu time    1.17: real time    1.17
       DOS:  cpu time    0.00: real time    0.00
    CHARGE:  cpu time    3.29: real time    3.29
    MIXING:  cpu time    0.03: real time    0.03
    --------------------------------------------
      LOOP:  cpu time   30.00: real time   30.00

 eigenvalue-minimisations  :  1381
 total energy-change (2. order) :-0.7594105E+03  (-0.3637494E+03)
 number of electron  626.0000006 magnetization 
 augmentation part    19.2287402 magnetization 

 Broyden mixing:
  rms(total) = 0.96861E+00    rms(broyden)= 0.92920E+00
  rms(prec ) = 0.16717E+01
  weight for this iteration     100.00

 eigenvalues of (default mixing * dielectric matrix)
  average eigenvalue GAMMA=   2.7443
  8.4087  2.9625  1.4828  1.4828  0.9987  1.1303

 Free energy of the ion-electron system (eV)
  ---------------------------------------------------
  alpha Z        PSCENC =       376.81987606
  Ewald energy   TEWEN  =    197787.89421200
  -1/2 Hartree   DENC   =      -642.60923475
  -exchange  EXHF       =         0.00000000
  -V(xc)+E(xc)   XCENC  =    -11178.50875942
  PAW double counting   =         0.00000000        0.00000000
  entropy T*S    EENTRO =        -0.01252689
  eigenvalues    EBANDS =    -15669.50067529
  atomic energy  EATOM  =     61676.87796612
  ---------------------------------------------------
  free energy    TOTEN  =    232350.96085784 eV

  energy without entropy =   232350.97338473  energy(sigma->0) =   232350.96712128


--------------------------------------------------------------------------------------------------------




----------------------------------------- Iteration    1(  15)  ---------------------------------------


    POTLOK:  cpu time    2.66: real time    2.66
    SETDIJ:  cpu time    0.03: real time    0.03
    EDDIAG:  cpu time    4.53: real time    4.54
  RMM-DIIS:  cpu time   17.55: real time   17.55
    ORTHCH:  cpu time    1.18: real time    1.17
       DOS:  cpu time    0.00: real time    0.00
    CHARGE:  cpu time    3.24: real time    3.24
    MIXING:  cpu time    0.03: real time    0.03
    --------------------------------------------
      LOOP:  cpu time   29.22: real time   29.23

 eigenvalue-minimisations  :  1377
 total energy-change (2. order) :-0.2050055E+04  (-0.1353561E+04)
 number of electron  626.0000007 magnetization 
 augmentation part    22.1808013 magnetization 

 Broyden mixing:
  rms(total) = 0.76535E+00    rms(broyden)= 0.69602E+00
  rms(prec ) = 0.11044E+01
  weight for this iteration     100.00

 eigenvalues of (default mixing * dielectric matrix)
  average eigenvalue GAMMA=   2.5708
  8.4949  3.2948  1.6222  1.6222  1.1091  1.0419  0.8105

 Free energy of the ion-electron system (eV)
  ---------------------------------------------------
  alpha Z        PSCENC =       376.81987606
  Ewald energy   TEWEN  =    197787.89421200
  -1/2 Hartree   DENC   =      -546.77943703
  -exchange  EXHF       =         0.00000000
  -V(xc)+E(xc)   XCENC  =    -11143.40681362
  PAW double counting   =         0.00000000        0.00000000
  entropy T*S    EENTRO =        -0.00842518
  eigenvalues    EBANDS =    -17850.49104904
  atomic energy  EATOM  =     61676.87796612
  ---------------------------------------------------
  free energy    TOTEN  =    230300.90632931 eV

  energy without entropy =   230300.91475449  energy(sigma->0) =   230300.91054190


--------------------------------------------------------------------------------------------------------




----------------------------------------- Iteration    1(  16)  ---------------------------------------


    POTLOK:  cpu time    2.67: real time    2.67
    SETDIJ:  cpu time    0.03: real time    0.03
    EDDIAG:  cpu time    4.54: real time    4.54
  RMM-DIIS:  cpu time   18.17: real time   18.17
    ORTHCH:  cpu time    1.18: real time    1.18
       DOS:  cpu time    0.00: real time    0.00
    CHARGE:  cpu time    3.08: real time    3.08
    MIXING:  cpu time    0.03: real time    0.03
    --------------------------------------------
      LOOP:  cpu time   29.70: real time   29.71

 eigenvalue-minimisations  :  1398
 total energy-change (2. order) :-0.2796342E+04  (-0.2410698E+04)
 number of electron  626.0000008 magnetization 
 augmentation part    25.9657517 magnetization 

 Broyden mixing:
  rms(total) = 0.73578E+00    rms(broyden)= 0.60517E+00
  rms(prec ) = 0.85542E+00
  weight for this iteration     100.00
  WARNING: grid for Broyden might be to small

 eigenvalues of (default mixing * dielectric matrix)
  average eigenvalue GAMMA=   2.4203
  8.4345  3.4877  1.7510  1.7510  1.1010  1.1010  0.8684  0.8684

 Free energy of the ion-electron system (eV)
  ---------------------------------------------------
  alpha Z        PSCENC =       376.81987606
  Ewald energy   TEWEN  =    197787.89421200
  -1/2 Hartree   DENC   =      -636.31379788
  -exchange  EXHF       =         0.00000000
  -V(xc)+E(xc)   XCENC  =    -11191.82849633
  PAW double counting   =         0.00000000        0.00000000
  entropy T*S    EENTRO =        -0.00000042
  eigenvalues    EBANDS =    -20508.88534366
  atomic energy  EATOM  =     61676.87796612
  ---------------------------------------------------
  free energy    TOTEN  =    227504.56441590 eV

  energy without entropy =   227504.56441632  energy(sigma->0) =   227504.56441611


--------------------------------------------------------------------------------------------------------




----------------------------------------- Iteration    1(  17)  ---------------------------------------


    POTLOK:  cpu time    2.65: real time    2.65
    SETDIJ:  cpu time    0.03: real time    0.03
    EDDIAG:  cpu time    4.57: real time    4.57
  RMM-DIIS:  cpu time   17.48: real time   17.48
    ORTHCH:  cpu time    1.20: real time    1.20
       DOS:  cpu time    0.00: real time    0.00
    CHARGE:  cpu time    3.26: real time    3.26
    MIXING:  cpu time    0.03: real time    0.03
    --------------------------------------------
      LOOP:  cpu time   29.22: real time   29.22

 eigenvalue-minimisations  :  1373
 total energy-change (2. order) :-0.1107281E+04  (-0.7537835E+03)
 number of electron  626.0000008 magnetization 
 augmentation part    27.8287148 magnetization 

 Broyden mixing:
  rms(total) = 0.12319E+01    rms(broyden)= 0.41925E+00
  rms(prec ) = 0.58316E+00
  weight for this iteration     100.00
  WARNING: grid for Broyden might be to small

 eigenvalues of (default mixing * dielectric matrix)
  average eigenvalue GAMMA=   2.3410
  8.4100  3.9822  1.8976  1.8976  1.1742  1.1742  1.0617  0.7360  0.7360

 Free energy of the ion-electron system (eV)
  ---------------------------------------------------
  alpha Z        PSCENC =       376.81987606
  Ewald energy   TEWEN  =    197787.89421200
  -1/2 Hartree   DENC   =      -792.36210552
  -exchange  EXHF       =         0.00000000
  -V(xc)+E(xc)   XCENC  =    -11085.60116290
  PAW double counting   =         0.00000000        0.00000000
  entropy T*S    EENTRO =        -0.00826244
  eigenvalues    EBANDS =    -21566.33726561
  atomic energy  EATOM  =     61676.87796612
  ---------------------------------------------------
  free energy    TOTEN  =    226397.28325772 eV

  energy without entropy =   226397.29152015  energy(sigma->0) =   226397.28738894


--------------------------------------------------------------------------------------------------------




----------------------------------------- Iteration    1(  18)  ---------------------------------------


    POTLOK:  cpu time    2.61: real time    2.61
    SETDIJ:  cpu time    0.03: real time    0.03
    EDDIAG:  cpu time    4.53: real time    4.53
  RMM-DIIS:  cpu time   18.49: real time   18.49
    ORTHCH:  cpu time    1.18: real time    1.18
       DOS:  cpu time    0.00: real time    0.00
    CHARGE:  cpu time    3.29: real time    3.29
    MIXING:  cpu time    0.04: real time    0.04
    --------------------------------------------
      LOOP:  cpu time   30.17: real time   30.17

 eigenvalue-minimisations  :  1392
 total energy-change (2. order) :-0.5638907E+04  (-0.5532696E+04)
 number of electron  626.0000010 magnetization 
 augmentation part    35.0380503 magnetization 

 Broyden mixing:
  rms(total) = 0.19021E+01    rms(broyden)= 0.92447E+00
  rms(prec ) = 0.11369E+01
  weight for this iteration     100.00
  WARNING: grid for Broyden might be to small

 eigenvalues of (default mixing * dielectric matrix)
  average eigenvalue GAMMA=   2.1282
  8.3579  4.0375  1.9173  1.9173  1.1839  1.1839  1.0637  0.7355  0.7355  0.1489

 Free energy of the ion-electron system (eV)
  ---------------------------------------------------
  alpha Z        PSCENC =       376.81987606
  Ewald energy   TEWEN  =    197787.89421200
  -1/2 Hartree   DENC   =      -855.54968197
  -exchange  EXHF       =         0.00000000
  -V(xc)+E(xc)   XCENC  =    -11320.57459543
  PAW double counting   =         0.00000000        0.00000000
  entropy T*S    EENTRO =        -0.00185892
  eigenvalues    EBANDS =    -26907.08988412
  atomic energy  EATOM  =     61676.87796612
  ---------------------------------------------------
  free energy    TOTEN  =    220758.37603375 eV

  energy without entropy =   220758.37789267  energy(sigma->0) =   220758.37696321


--------------------------------------------------------------------------------------------------------




----------------------------------------- Iteration    1(  19)  ---------------------------------------


    POTLOK:  cpu time    2.68: real time    2.68
    SETDIJ:  cpu time    0.03: real time    0.03
    EDDIAG:  cpu time    4.59: real time    4.59
  RMM-DIIS:  cpu time   18.78: real time   18.78
    ORTHCH:  cpu time    1.18: real time    1.18
       DOS:  cpu time    0.00: real time    0.00
    CHARGE:  cpu time    3.28: real time    3.27
    MIXING:  cpu time    0.04: real time    0.04
    --------------------------------------------
      LOOP:  cpu time   30.56: real time   30.56

 eigenvalue-minimisations  :  1366
 total energy-change (2. order) :-0.3749691E+04  (-0.4156651E+04)
 number of electron  626.0000012 magnetization 
 augmentation part    40.9583176 magnetization 

 Broyden mixing:
  rms(total) = 0.24763E+01    rms(broyden)= 0.14783E+01
  rms(prec ) = 0.17705E+01
  weight for this iteration     100.00
  WARNING: grid for Broyden might be to small

 eigenvalues of (default mixing * dielectric matrix)
  average eigenvalue GAMMA=   1.9625
  8.4136  4.0361  1.9044  1.9044  1.1796  1.1796  1.0476  0.7835  0.7537  0.2232
  0.1619

 Free energy of the ion-electron system (eV)
  ---------------------------------------------------
  alpha Z        PSCENC =       376.81987606
  Ewald energy   TEWEN  =    197787.89421200
  -1/2 Hartree   DENC   =      -928.89915736
  -exchange  EXHF       =         0.00000000
  -V(xc)+E(xc)   XCENC  =    -10957.84193769
  PAW double counting   =         0.00000000        0.00000000
  entropy T*S    EENTRO =        -0.01240362
  eigenvalues    EBANDS =    -30946.15346143
  atomic energy  EATOM  =     61676.87796612
  ---------------------------------------------------
  free energy    TOTEN  =    217008.68509409 eV

  energy without entropy =   217008.69749771  energy(sigma->0) =   217008.69129590


--------------------------------------------------------------------------------------------------------




----------------------------------------- Iteration    1(  20)  ---------------------------------------


    POTLOK:  cpu time    2.60: real time    2.60
    SETDIJ:  cpu time    0.03: real time    0.03
    EDDIAG:  cpu time    4.56: real time    4.56
  RMM-DIIS:  cpu time   18.35: real time   18.35
    ORTHCH:  cpu time    1.20: real time    1.21
       DOS:  cpu time    0.00: real time    0.00
    CHARGE:  cpu time    3.26: real time    3.26
    MIXING:  cpu time    0.04: real time    0.04
    --------------------------------------------
      LOOP:  cpu time   30.05: real time   30.05

 eigenvalue-minimisations  :  1393
 total energy-change (2. order) :-0.6900453E+04  (-0.7742421E+04)
 number of electron  626.0000015 magnetization 
 augmentation part    50.8973121 magnetization 

 Broyden mixing:
  rms(total) = 0.30789E+01    rms(broyden)= 0.26742E+01
  rms(prec ) = 0.32424E+01
  weight for this iteration     100.00
  WARNING: grid for Broyden might be to small

 eigenvalues of (default mixing * dielectric matrix)
  average eigenvalue GAMMA=   1.8045
  8.4276  4.0225  1.9072  1.9072  1.1746  1.1746  1.0236  0.7851  0.7557  0.2748
  0.1005  0.1005

 Free energy of the ion-electron system (eV)
  ---------------------------------------------------
  alpha Z        PSCENC =       376.81987606
  Ewald energy   TEWEN  =    197787.89421200
  -1/2 Hartree   DENC   =      -903.56689345
  -exchange  EXHF       =         0.00000000
  -V(xc)+E(xc)   XCENC  =    -11319.51850623
  PAW double counting   =         0.00000000        0.00000000
  entropy T*S    EENTRO =        -0.01046811
  eigenvalues    EBANDS =    -37510.26403817
  atomic energy  EATOM  =     61676.87796612
  ---------------------------------------------------
  free energy    TOTEN  =    210108.23214822 eV

  energy without entropy =   210108.24261633  energy(sigma->0) =   210108.23738228


[...]
  n-local   -41.41558  -245.42899  -186.08248   -51.54144    98.82096   -46.34589
  augment  1734.82811  1727.75014  1737.63180    -2.12201     2.38441    -2.24795
  Kinetic  4915.03539  4936.68014  4776.25837    17.18914    41.03254    -7.65055
  Fock        0.00000     0.00000     0.00000     0.00000     0.00000     0.00000
  -------------------------------------------------------------------------------------
  Total    -501.97825  -227.86083  -729.82151   -90.34953    66.78795  -690.61189
  in kB     -45.69649   -20.74281   -66.43770    -8.22477     6.07989   -62.86834
  external pressure =      -44.29 kB  Pullay stress =        0.00 kB


 VOLUME and BASIS-vectors are now :
 -----------------------------------------------------------------------------
  energy-cutoff  :      300.00
  volume of cell :    17600.00
      direct lattice vectors                 reciprocal lattice vectors
    32.000000000  0.000000000  0.000000000     0.031250000  0.000000000  0.000000000
     0.000000000 25.000000000  0.000000000     0.000000000  0.040000000  0.000000000
     0.000000000  0.000000000 22.000000000     0.000000000  0.000000000  0.045454545

  length of vectors
    32.000000000 25.000000000 22.000000000     0.031250000  0.040000000  0.045454545


 FORCES acting on ions
    electron-ion (+dipol)            ewald-force                    non-local-force                 convergence-correction
 -----------------------------------------------------------------------------------------------
   -.642E+01 -.177E+01 0.787E+01   -.169E+02 0.366E+02 -.367E+01   0.103E+02 -.991E+01 0.354E+02   -.356E+00 -.110E+00 0.293E+00
   0.300E+02 -.333E+01 -.542E+01   -.428E+01 0.223E+02 0.334E+02   0.534E+02 0.324E+02 -.353E+02   0.236E+00 0.183E+00 0.565E+00
   0.804E+01 0.105E+02 -.314E+00   -.494E+02 -.664E+01 0.152E+02   0.188E+02 0.294E+02 0.387E+02   0.496E-01 -.686E-01 -.553E+00
   0.507E+01 0.112E+02 0.662E+01   -.402E+02 -.211E+02 -.109E+02   -.119E+01 0.570E+01 -.333E+02   0.490E-01 0.334E+00 -.203E+00
   -.929E+01 -.560E-01 -.957E+00   0.193E+02 0.624E+01 0.545E+01   0.118E+01 -.180E+02 -.861E+01   0.635E-01 -.250E+00 -.334E-01
   0.441E+01 -.113E+02 -.129E+01   -.681E+02 -.113E+02 0.268E+02   0.291E+02 0.164E+02 0.232E+01   -.380E+00 0.160E-01 0.237E+00
   -.378E+02 -.138E+02 0.623E+01   0.126E+03 0.127E+02 -.429E+02   -.405E+02 -.211E+02 0.195E+02   -.354E+00 -.120E+00 0.354E+00
   0.537E+01 -.267E+01 -.106E+00   -.267E+02 -.375E+02 0.340E+01   -.611E+01 0.204E+02 -.180E+02   -.328E+00 -.158E+00 -.583E+00
   0.301E+02 -.113E+02 -.142E+02   -.830E+02 0.611E+02 0.104E+02   0.189E+02 0.567E+01 -.538E+02   0.954E-01 -.120E+00 0.166E+00
   -.870E+01 0.930E+01 -.156E+02   0.562E+02 0.499E+01 0.771E+02   0.875E+02 0.221E+02 0.477E+02   0.388E+00 0.153E-01 0.745E+00
   -.285E+01 0.306E+01 -.111E+02   0.276E+02 -.124E+02 0.368E+02   -.249E+02 0.137E+02 0.435E+01   0.205E+00 -.225E+00 -.541E+00
   0.276E+01 -.948E+01 -.285E+02   -.131E+02 0.200E+02 0.901E+02   -.139E+02 -.572E+00 -.297E+02   0.136E+00 -.210E+00 0.244E+00
   0.574E+01 0.250E+01 -.235E+01   0.235E+02 0.130E+02 0.441E+02   -.640E+01 -.124E+02 -.331E+02   -.162E+00 0.397E-01 -.315E+00
   -.937E+01 0.122E+02 -.268E+01   0.438E+02 0.547E+01 -.964E+01   0.147E+02 0.161E+02 -.738E+01   0.173E+00 -.142E+00 -.991E-01
   -.147E+02 -.889E+01 -.738E+01   0.279E+02 0.200E+02 0.188E+02   -.866E+02 -.323E+02 -.722E+02   -.313E+00 0.392E+00 -.132E+00
   -.102E+02 -.178E+02 0.852E+01   0.521E+02 0.748E+02 0.337E+02   -.281E-01 -.945E+01 0.389E+02   -.710E-02 0.494E+00 -.282E-01
   0.110E+02 -.207E+02 0.181E+01   -.145E+02 0.220E+02 -.378E+01   0.432E+01 -.127E+02 0.369E+01   0.209E+00 0.316E+00 -.108E+00
   0.343E+01 -.819E+01 0.208E+02   -.121E+02 0.236E+02 -.592E+02   0.189E+02 0.410E+01 0.128E+03   0.946E-01 0.259E+00 0.171E+00
   0.175E+02 0.477E+01 0.212E+02   -.177E+02 -.526E+02 -.877E+02   -.612E+02 -.260E+02 -.792E+02   0.135E+00 0.469E+00 0.674E+00
   -.102E+02 -.234E+01 -.399E+01   -.961E+01 -.253E+02 -.505E+01   -.133E+02 -.137E+02 -.253E+01   0.453E-01 -.464E-02 -.622E-01
   -.590E+01 0.909E+01 -.519E+01   -.248E+02 0.321E+02 -.447E+02   -.231E+02 -.219E+02 0.165E+02   -.306E+00 -.897E-01 -.108E+00
   0.157E+02 0.160E+02 0.114E+02   -.545E+02 -.464E+02 -.221E+02   0.147E+02 0.258E+02 0.247E+02   0.219E+00 0.668E-01 0.505E+00
   0.156E+01 -.807E+01 0.144E+02   -.172E+02 0.288E+02 -.262E+02   0.421E+01 -.133E+02 0.415E+02   0.160E+00 0.471E+00 0.741E-01
   -.910E+01 -.217E+01 0.589E+01   0.104E+02 0.501E+02 -.868E+01   0.526E+01 -.158E+02 -.324E+01   0.281E-01 0.199E+00 0.100E+00
   0.572E+01 0.205E+01 -.215E+00   -.182E+02 0.537E+01 -.102E+02   -.107E+02 0.459E+01 -.116E+01   -.126E+00 0.805E-01 0.846E-01
   -.269E+02 -.916E+01 -.792E+01   0.355E+02 0.412E+02 0.205E+02   -.178E+02 -.129E+02 -.217E+02   -.112E+00 -.339E+00 -.226E-01
   0.134E+02 0.192E+02 -.111E+02   0.445E+01 -.186E+02 0.383E+02   0.423E+01 0.657E+01 -.210E+01   0.343E+00 0.662E-01 0.330E+00
   -.201E+02 0.131E+02 -.499E+00   0.238E+02 -.583E+02 0.260E+00   0.247E+01 0.850E+01 -.285E+01   -.208E+00 0.314E+00 0.384E-01
   0.616E+01 0.125E+02 -.640E+01   -.272E+02 -.338E+02 0.410E+01   -.101E+02 0.968E+00 -.350E+01   0.266E+00 -.205E+00 -.280E+00
   0.121E+02 -.334E+01 0.621E+01   0.814E+01 -.303E+02 -.506E+02   0.252E+01 -.392E+01 0.130E+01   -.244E+00 0.208E+00 -.131E+00
   -.234E+02 0.106E+02 -.821E+01   0.759E+02 -.263E+02 0.264E+02   0.784E+01 0.266E+01 -.205E+01   0.297E+00 0.321E+00 0.713E+00
   0.975E+01 0.563E+01 0.883E+01   -.910E+00 -.389E+01 -.485E+02   -.158E+01 -.188E+01 0.623E+01   -.436E-01 -.219E+00 -.310E+00
   -.976E+01 0.156E+02 0.744E+01   -.992E+01 -.729E+02 -.368E+02   0.929E+01 0.131E+02 0.660E+00   -.244E+00 -.222E+00 -.434E+00
   -.526E+01 0.719E+00 0.431E+01   -.954E+01 0.122E+02 -.412E+01   0.381E-01 0.151E-01 -.625E-01   -.306E-01 -.286E+00 -.504E-01
   0.626E+01 0.767E+01 -.614E+01   -.633E+01 -.271E+01 0.265E+02   -.176E+00 -.110E+00 0.118E+00   -.174E+00 -.201E+00 0.367E+00
   -.116E+02 -.191E+00 0.565E+01   0.226E+02 -.193E+02 -.227E+02   -.150E-01 -.269E-03 -.137E+00   0.938E-01 0.941E-01 0.858E-01
   0.627E+01 -.949E+01 0.222E+01   -.287E+02 0.137E+02 -.186E+01   0.572E-01 -.187E-01 0.209E-01   0.794E-02 -.288E+00 -.164E-01
   0.463E+01 -.762E+01 0.136E+01   0.113E+02 0.346E+02 -.352E+02   -.737E-01 0.117E+00 0.934E-01   -.244E+00 0.116E+00 -.267E-01
   -.141E+01 -.520E+01 0.366E+01   -.248E+02 -.350E+01 -.550E+01   -.942E-01 0.443E-01 -.984E-01   -.799E-01 0.209E+00 -.260E+00
   0.854E+01 -.108E+02 -.159E+01   -.255E+02 0.324E+02 0.115E+02   -.567E-01 -.840E-01 0.301E-01   0.961E-01 -.120E+00 0.140E+00
   -.613E+00 0.291E+00 0.449E+01   -.184E+02 -.397E+01 -.102E+02   0.926E-02 -.145E-01 0.299E-02   0.284E+00 -.276E-01 0.391E-01
   0.838E+01 0.353E+01 0.398E+01   -.114E+02 -.273E+02 -.234E+02   -.520E-02 -.429E-01 -.256E-01   -.331E+00 0.596E-01 -.173E+00
   -.482E+01 0.700E+00 0.610E+01   0.347E+02 0.572E+01 -.293E+02   0.796E-01 -.352E-01 -.217E-01   0.471E+00 -.140E-01 -.222E+00
   0.226E+01 0.751E+01 0.110E+01   0.496E+00 -.513E+01 -.215E+02   0.313E-01 -.235E-01 0.928E-01   -.491E-01 -.708E-01 0.280E+00
   -.341E+01 -.306E+01 0.351E+00   -.874E+01 -.560E+01 0.504E+01   0.563E-01 0.619E-01 -.650E-02   0.309E-01 0.225E+00 0.132E+00
   0.394E+01 0.189E+01 -.127E+02   -.812E+01 -.101E+02 0.430E+02   -.665E-01 0.132E-01 -.145E-01   -.296E-01 0.158E+00 0.224E+00
   0.969E+01 -.386E+01 0.183E+00   -.638E+00 0.410E+02 0.234E+02   0.716E-02 0.412E-01 -.327E-02   0.193E+00 0.234E-01 -.462E-01
   -.756E+01 -.229E+01 -.401E+01   0.223E+01 0.685E+01 0.653E+01   0.193E-01 0.520E-01 0.657E-01   -.129E+00 -.184E-01 -.638E-01
   0.735E+01 0.663E+01 0.241E+01   -.894E+01 -.118E+02 0.832E+00   -.540E-01 0.107E-01 -.310E-01   -.834E-01 0.156E+00 -.190E+00
   0.785E+01 -.863E+01 -.149E+01   -.179E+02 0.184E+02 -.454E+01   0.491E-01 0.310E-01 0.597E-01   0.109E+00 -.106E-01 0.860E-01
   -.186E+01 -.558E+01 -.485E+00   0.318E+02 0.154E+02 -.639E+01   -.160E-01 0.283E-01 0.216E-01   0.928E-01 0.240E+00 0.225E-01
   0.710E+00 0.214E+01 0.964E+00   0.197E+02 -.737E+01 0.750E+01   0.290E-01 0.402E-02 -.112E-01   0.117E+00 -.116E+00 -.118E+00
   -.289E+01 -.102E+02 0.852E+00   0.172E+02 0.473E+02 -.123E+01   -.846E-02 0.293E-01 0.362E-01   0.899E-01 0.114E+00 -.764E-01
   -.206E+00 -.803E+01 0.101E+01   0.975E+01 0.101E+02 -.112E+02   0.948E-01 0.136E-01 -.142E+00   0.436E-01 -.381E-01 -.174E+00
   0.659E+01 -.239E+00 0.227E+01   -.306E+02 -.351E+02 -.287E+02   -.451E-01 0.541E-01 0.773E-02   -.768E-02 0.209E+00 -.776E-01
   -.586E+01 0.349E+01 -.365E+01   0.872E+00 -.721E+01 0.152E+02   0.228E-01 0.211E-01 0.115E+00   -.260E+00 -.929E-01 0.796E-01
   0.321E+01 -.637E+00 -.674E+00   -.168E+02 0.890E+00 0.150E+02   -.635E-01 -.641E-02 -.139E-01   0.203E+00 0.174E+00 0.175E+00
   -.268E-01 0.421E+01 0.166E+01   -.172E+02 -.155E+02 -.196E+02   0.120E-01 -.397E-01 -.290E-01   -.182E-01 -.952E-01 0.952E-01
   -.585E+01 0.990E+01 -.111E+01   0.224E+02 -.332E+02 -.266E+02   -.112E+00 -.959E-01 -.399E-01   -.101E+00 0.430E-01 -.141E+00
   -.756E+01 0.204E+01 0.648E+00   0.744E+01 -.698E+01 -.226E+02   -.258E-01 -.198E-01 0.261E-01   0.143E+00 -.570E-01 0.832E-01
   0.566E+01 0.694E+01 -.113E+02   -.231E+00 -.306E+02 0.440E+02   -.230E+00 -.674E-01 -.106E-01   -.385E-01 0.182E-01 0.224E+00
   -.796E+01 0.904E+01 0.334E+01   0.514E+02 -.225E+02 -.365E+01   0.174E-01 -.115E+00 -.273E-01   -.599E-01 -.144E+00 -.269E+00
   -.483E+01 -.342E+01 0.532E+01   0.231E+02 0.157E+02 -.956E+01   0.292E-02 0.698E-02 -.266E-01   -.269E+00 0.354E-01 -.297E+00
   0.529E+01 -.303E+01 0.541E+01   -.426E+01 -.144E+02 -.105E+02   -.403E-01 0.520E-01 -.430E-01   0.121E+00 0.274E+00 -.138E-01
   0.315E+01 0.997E+01 0.114E+01   -.388E+02 -.273E+02 -.672E+01   -.133E+00 0.238E-01 0.527E-01   0.864E-01 0.206E+00 0.364E+00
   0.319E+01 -.426E+01 0.195E+01   -.153E+02 -.516E+01 0.140E+01   0.467E-01 -.173E-01 -.287E-01   -.425E-01 -.919E-01 -.470E-01
   0.495E+01 -.644E+01 -.129E+01   -.304E+02 0.941E+01 0.227E+02   0.450E+00 0.419E+00 0.330E+00   -.128E+00 0.197E+00 -.970E-01
   -.190E+01 -.269E+01 0.124E+01   -.116E+02 -.148E+02 0.703E+01   -.280E+00 -.532E-01 -.226E+00   0.431E+00 0.117E+00 0.342E-01
   -.296E+00 -.554E+01 -.156E+01   0.194E+02 0.114E+02 0.124E+02   -.502E-01 0.850E-01 0.117E+00   -.242E+00 -.272E+00 -.124E-01
   -.738E+01 -.958E+00 -.320E+01   0.125E+02 0.359E+01 0.187E+02   0.791E-02 0.723E-01 -.138E+00   0.687E-01 0.760E+00 -.159E+01
   0.101E+02 -.206E+01 -.182E+01   -.194E+02 0.172E+02 0.317E+02   0.356E+00 -.610E+00 0.647E+00   -.614E-01 0.198E+00 -.899E+00
   -.303E+01 0.118E+01 0.161E+01   0.128E+02 -.509E+01 -.466E+01   -.789E-02 0.418E-02 0.580E-02   0.274E-01 -.275E-01 -.408E-01
   0.107E+01 -.543E+00 -.694E+00   0.263E+02 0.950E+01 0.224E+01   -.200E-01 -.325E-02 -.900E-02   0.242E-01 -.618E-01 0.531E-01
   -.169E-01 0.465E+00 -.282E+00   0.189E+01 -.134E-01 0.192E+01   0.376E-03 -.144E-01 -.149E-01   0.727E-01 -.278E-01 0.146E-01
   -.221E+00 0.890E+00 -.957E+00   0.798E+01 -.424E+01 0.487E+01   0.128E-01 -.792E-03 -.267E-02   -.274E-01 0.405E-01 0.670E-01
   0.150E+01 0.208E+01 0.892E+00   -.813E+01 -.953E+01 -.597E+01   0.225E-01 0.827E-02 0.150E-01   0.123E-01 -.290E-02 0.811E-01
 -----------------------------------------------------------------------------------------------
   0.919E+01 -.628E+00 0.494E+01   -.497E-13 -.266E-13 -.393E-12   -.984E+01 0.221E+01 -.164E+00   0.421E+00 0.336E+01 -.899E+00
 
 
 POSITION                                       TOTAL-FORCE (eV/Angst)
 -----------------------------------------------------------------------------------
     30.28094     -1.17360     -1.45517       -13.440455     24.755036     39.813187
    -22.15750     14.29309     -1.46094        79.371408     51.510172     -6.756611
    -18.73252     12.00421      5.49176       -22.504584     33.117313     52.988591
    -17.38093      5.41410    -12.07069       -36.314747     -3.942632    -37.846483
     -2.06635     10.37538     -7.48973        11.211509    -12.111283     -4.201239
     -3.80146      4.85510      1.27343       -34.945910     -6.312426     28.030835
    -10.73834     17.54827     -7.40227        46.956108    -22.397877    -16.791644
     15.40696     17.72636      3.92827       -27.724062    -19.943919    -15.349244
     12.31650     -6.45213     14.99267       -34.003478     55.285912    -57.423913
    -13.96960      6.30123     -2.36119       135.379598     36.353541    109.843791
      3.22835     15.49918      2.99970         0.093926      4.088652     29.430912
     18.14790     17.24472     -4.76815       -24.048149      9.659490     32.016244
      7.87574      2.06326    -14.52411        22.675397      3.052716      8.323891
     19.99636      3.47321     -7.03945        49.312460     33.578292    -19.854502
     -2.72674     -3.19280      5.48595       -73.825570    -20.846952    -60.925323
     22.14061     -2.52723    -16.80444        41.941453     47.968108     81.028300
    -14.49809     -2.95568    -13.25856         1.091545    -11.106642      1.556523
     20.13877     20.97967      1.46069        10.392922     19.667860     89.179393
    -16.20642     -9.48620     -9.22480       -61.282567    -73.404414   -145.071512
      1.59000     19.09475     20.21743       -33.052592    -41.441764    -11.688784
      2.68719    -18.50422     19.85288       -54.085081     19.185364    -33.590687
     12.36258      7.42373     -4.46896       -23.841668     -4.628218     14.445605
     -3.68982      2.29997     -7.92643       -11.227431      7.906005     29.651217
      1.62467     -1.45248     -8.63042         6.570506     32.205474     -5.985427
      6.43460    -15.15170     -2.14061       -23.247390     12.029867    -11.556593
     26.27863     18.40864     10.59686        -9.273105     18.683012     -9.253686
     11.54992      6.90238      1.16039        22.468258      7.117292     25.379273
     -4.55797     13.47909     10.24252         5.907863    -36.501884     -3.100054
     -9.63948     15.24686      6.32621       -30.882936    -20.653533     -6.127959
      7.90827     -9.19790    -11.21913        22.535967    -37.400326    -43.262850
     20.89125     11.27370     -5.21350        60.703141    -12.729712     16.772969
     15.68028      9.27666     13.75089         7.213416     -0.417761    -33.841846
     -7.09757    -13.01788    -18.41625       -10.632731    -44.444251    -29.151167
     -1.38089      7.37650      9.34788       -14.786393     12.613475      0.030065
    -15.67123      1.91989     20.65553        -0.421275      4.588016     20.828232
     -8.39962     19.31077     -1.30849        11.068395    -19.509211    -17.185544
    -18.60249     20.82735     -0.67455       -22.384219      3.845002      0.314158
     14.12484     23.74245      3.91222        15.591364     27.107005    -33.834163
     -0.06790      3.87623      7.57678       -26.376997     -8.509044     -2.249346
    -15.61277     -2.55167     13.41785       -16.921476     21.353929     10.031165
    -28.90447      0.02892      8.19298       -18.676371     -3.788312     -5.766752
      7.96905     12.41749     -6.97175        -3.376651    -23.850611    -19.625469
     17.44974      4.35635      6.32948        30.420456      6.310929    -23.466891
      9.81179      2.62681    -18.71046         2.741716      2.222778    -20.040755
     -5.80167     -2.12607     15.18623       -12.051143     -8.434816      5.468880
      2.09438      5.45522      1.97764        -4.266186     -8.069785     30.489941
      4.45948      5.00776      8.33503         9.253088     37.140043     23.467829
     29.39191      9.53794      2.27860        -5.436990      4.524741      2.472474
     27.16658     -4.00051     -0.15801        -1.733753     -5.103694      2.973876
     15.75528     23.59059     -3.84660        -9.861327      9.734889     -5.941930
     20.19073     -0.12436     12.04075        30.060092     10.073871     -6.878142
      4.31412     17.86650     -8.02881        20.587208     -5.414826      8.283573
     23.73102      2.00297    -14.63899        14.380244     37.179796     -0.469742
      6.81443     -6.01528     -2.60707         9.688421      1.961661    -10.507331
      3.61189     14.29930    -11.43291       -24.047079    -35.183029    -26.537472
     -1.34206     14.59038      4.80020        -5.226925     -3.851413     11.671659
     27.99433      7.22891     17.91974       -13.465856      0.355726     14.476910
     29.86406     14.80152     -0.55891       -17.223729    -11.471655    -17.963355
      3.06345      2.54766     -2.67978        16.329393    -23.392461    -27.915114
     -7.74295      7.74150     14.29180         0.006201     -5.079106    -21.932155
     16.72727    -11.07946     20.23081         5.163478    -23.798741     32.809272
     16.88886    -14.99163      6.30214        43.396168    -13.814198     -0.652653
      3.80444    -20.87670     -8.02379        17.999025     12.292015     -4.623134
      5.55003     -3.58568      8.30652         1.107859    -17.182957     -5.152405
      1.61693     -5.27522     -8.22016       -35.667119    -17.155958     -5.220812
     10.37453     20.17850      8.15239       -12.144736     -9.592589      3.224243
    -19.74083     -1.85037    -15.83476       -25.151423      3.512337     21.639952
      2.31302     13.93602     15.08855       -13.354252    -17.453337      8.027885
      7.38447     -3.05417      0.36878        18.787019      5.578157     10.935982
      4.00820     -0.47239      0.26823         5.205597      3.396288     13.680849
      4.59528      8.48137      4.43723        -9.001895     14.703829     29.568753
     24.30708     -4.16590      3.53707         9.829285     -4.000103     -3.143361
      6.25565      8.91921      4.24284        27.351778      8.825721      1.540241
     12.24336     11.64745      1.11644         1.950999      0.344238      1.591332
     19.21798      1.72940     18.58253         7.751478     -3.372779      3.925983
     11.34499      4.90150     14.72055        -6.586491     -7.516333     -5.027934
 -----------------------------------------------------------------------------------
    total drift:                               -0.230524      4.943785      3.876516
 d Force = 0.1897023E+03[ 0.150E+03, 0.229E+03]  d Energy = 0.8390088E+02 0.106E+03
 d Force = 0.2545354E+03[ 0.201E+03, 0.308E+03]  d Ewald  = 0.2517329E+03 0.280E+01


--------------------------------------------------------------------------------------------------------


    POTLOK:  cpu time    2.66: real time    2.66


--------------------------------------------------------------------------------------------------------




--------------------------------------------------------------------------------------------------------


 writing wavefunctions
     LOOP+:  cpu time 1129.16: real time 1131.56
    4ORBIT:  cpu time    0.00: real time    0.00

 total amount of memory used by VASP on root node 782104. kBytes
========================================================================

   base      :    30000. kBytes
   nonlr-proj:    53678. kBytes
   fftplans  :    57109. kBytes
   grid      :   620089. kBytes
   one-center:     1181. kBytes
   wavefun   :    20047. kBytes
 
  
  
 General timing and accounting informations for this job:
 ========================================================
  
                  Total CPU time used (sec):    28067.006
                            User time (sec):    27886.987
                          System time (sec):      180.019
                         Elapsed time (sec):    28095.311
  
                   Maximum memory used (kb):           0.
                   Average memory used (kb):           0.
  
                          Minor page faults:       451026
                          Major page faults:          703
                 Voluntary context switches:        24019
