 vasp.4.6.36 17Feb09 gamma-only
 executed on             LinuxIFC date 2011.06.10  09:00:09
 running on   16 nodes
 distr:  one band on    1 nodes,   16 groups


--------------------------------------------------------------------------------------------------------


 INCAR:
