 vasp.5.2.2 15Apr09 complex 
 executed on             LinuxIFC date 2011.05.29  15:41:29
 running on   64 nodes
 distr:  one band on    1 nodes,   64 groups


--------------------------------------------------------------------------------------------------------


 INCAR:
 POTCAR:    US Cd                                 
 POTCAR:    US Se                                 
 POTCAR:    US P                                  
 POTCAR:    US C                                  
 POTCAR:    US O                                  
 POTCAR:    US H                                  
 POTCAR:    US Cd                                 
   VRHFIN =Cd : s2 d10                                                          
   LEXCH  = 91                                                                  
   EATOM  =  1507.8696 eV,  110.8253 Ry                                         
   TITEL  = US Cd                                                               
   LULTRA =        T    use ultrasoft PP ?                                      
   IUNSCR =        1    unscreen: 0-lin 1-nonlin 2-no                           
   RPACOR =    1.180    partial core radius                                     
   POMASS =  112.411; ZVAL   =   12.000    mass and valenz                      
   RCORE  =    2.980    outmost cutoff radius                                   
   RWIGS  =    2.980; RWIGS  =    1.577    wigner-seitz radius (au A)           
   ENMAX  =  167.929; ENMIN  =  125.946 eV                                      
   EAUG   =  275.449                                                            
                                                                                
   RCLOC  =    2.054    cutoff for local pot                                    
   LCOR   =        T    correct aug charges                                     
   RMAX   =    3.558    core radius for proj-oper                               
   QCUT   =   -3.513; QGAM   =    7.026    optimization parameters              
                                                                                
   Description                                                                  
     l     E      TYP  RCUT    TYP  RCUT                                        
     2   .000      7  2.420    23  2.980                                        
     2   .000      7  2.420    23  2.980                                        
     0   .000     15  2.660    23  2.660                                        
     0   .000     15  2.660    23  2.660                                        
     1  -.200     15  2.660    23  2.980                                        
     1   .000     15  2.660    23  2.980                                        
     3   .000      7   .000     0   .000                                        
  local pseudopotential read in
  partial core-charges read in
  atomic valenz-charges read in
  non local Contribution for L=           2  read in
    real space projection operators read in
  non local Contribution for L=           2  read in
    real space projection operators read in
  non local Contribution for L=           0  read in
    real space projection operators read in
  non local Contribution for L=           0  read in
    real space projection operators read in
  non local Contribution for L=           1  read in
    real space projection operators read in
  non local Contribution for L=           1  read in
    real space projection operators read in
    augmentation charges read in
 
   number of l-projection  operators is LMAX  =           6
   number of lm-projection operators is LMMAX =          18
 
 POTCAR:    US Se                                 
   VRHFIN =Se: s2p4                                                             
   LEXCH  = 91                                                                  
   EATOM  =   310.2335 eV,   22.8015 Ry                                         
   TITEL  = US Se                                                               
   LULTRA =        T    use ultrasoft PP ?                                      
   IUNSCR =        1    unscreen: 0-lin 1-nonlin 2-no                           
   RPACOR =    1.580    partial core radius                                     
   POMASS =   78.960; ZVAL   =    6.000    mass and valenz                      
   RCORE  =    2.480    outmost cutoff radius                                   
   RWIGS  =    2.480; RWIGS  =    1.312    wigner-seitz radius (au A)           
   ENMAX  =  155.175; ENMIN  =  116.381 eV                                      
   EAUG   =  244.760                                                            
                                                                                
   ICORE  =        3    local potential                                         
   LCOR   =        T    correct aug charges                                     
   RMAX   =    3.701    core radius for proj-oper                               
   QCUT   =   -3.377; QGAM   =    6.754    optimization parameters              
                                                                                
   Description                                                                  
     l     E      TYP  RCUT    TYP  RCUT                                        
     0   .000     15  2.210    23  2.480                                        
     0   .000     15  2.210    23  2.480                                        
     1   .000     15  2.210    23  2.480                                        
     1   .000     15  2.210    23  2.480                                        
     2   .000      7  2.480     7  2.480                                        
     3  -.100      7  2.480     7  2.480                                        
  local pseudopotential read in
  partial core-charges read in
  atomic valenz-charges read in
  non local Contribution for L=           0  read in
    real space projection operators read in
  non local Contribution for L=           0  read in
    real space projection operators read in
  non local Contribution for L=           1  read in
    real space projection operators read in
  non local Contribution for L=           1  read in
    real space projection operators read in
  non local Contribution for L=           2  read in
    real space projection operators read in
    augmentation charges read in
 
   number of l-projection  operators is LMAX  =           5
   number of lm-projection operators is LMMAX =          13
 
 POTCAR:    US P                                  
   VRHFIN =P : s2p3                                                             
   LEXCH  = 91                                                                  
   EATOM  =   186.0002 eV,   13.6706 Ry                                         
   TITEL  = US P                                                                
   LULTRA =        T    use ultrasoft PP ?                                      
   IUNSCR =        1    unscreen: 0-lin 1-nonlin 2-no                           
   RPACOR =    1.480    partial core radius                                     
   POMASS =   30.974; ZVAL   =    5.000    mass and valenz                      
   RCORE  =    2.330    outmost cutoff radius                                   
   RWIGS  =    2.330; RWIGS  =    1.233    wigner-seitz radius (au A)           
   ENMAX  =  173.498; ENMIN  =  130.123 eV                                      
   EAUG   =  272.091                                                            
                                                                                
   ICORE  =        2    local potential                                         
   LCOR   =        T    correct aug charges                                     
   RMAX   =    3.500    core radius for proj-oper                               
   QCUT   =   -3.571; QGAM   =    7.142    optimization parameters              
                                                                                
   Description                                                                  
     l     E      TYP  RCUT    TYP  RCUT                                        
     0   .000     15  2.080    23  2.330                                        
     0   .000     15  2.080    23  2.330                                        
     1   .000     15  2.080    23  2.330                                        
     1   .000     15  2.080    23  2.330                                        
     2   .000      7  2.330     7  2.330                                        
  local pseudopotential read in
  partial core-charges read in
  atomic valenz-charges read in
  non local Contribution for L=           0  read in
    real space projection operators read in
  non local Contribution for L=           0  read in
    real space projection operators read in
  non local Contribution for L=           1  read in
    real space projection operators read in
  non local Contribution for L=           1  read in
    real space projection operators read in
    augmentation charges read in
 
   number of l-projection  operators is LMAX  =           4
   number of lm-projection operators is LMMAX =           8
 
 POTCAR:    US C                                  
   VRHFIN =C: s2p2                                                              
   LEXCH  = 91                                                                  
   EATOM  =   146.0548 eV,   10.7347 Ry                                         
   TITEL  = US C                                                                
   LULTRA =        T    use ultrasoft PP ?                                      
   IUNSCR =        0    unscreen: 0-lin 1-nonlin 2-no                           
   RPACOR =     .000    partial core radius                                     
   POMASS =   12.011; ZVAL   =    4.000    mass and valenz                      
   RCORE  =    1.810    outmost cutoff radius                                   
   RWIGS  =    1.630; RWIGS  =     .863    wigner-seitz radius (au A)           
   ENMAX  =  286.744; ENMIN  =  215.058 eV                                      
   EAUG   =  550.000                                                            
                                                                                
   ICORE  =        2    local potential                                         
   LCOR   =        T    correct aug charges                                     
   RMAX   =    2.723    core radius for proj-oper                               
   QCUT   =   -4.591; QGAM   =    9.182    optimization parameters              
                                                                                
   Description                                                                  
     l     E      TYP  RCUT    TYP  RCUT                                        
     0   .000     15  1.320    23  1.630                                        
     0   .000     15  1.320    23  1.630                                        
     1   .000     15  1.320    23  1.810                                        
     1   .000     15  1.320    23  1.810                                        
     2   .000      7  1.810     7  1.810                                        
  local pseudopotential read in
  atomic valenz-charges read in
  non local Contribution for L=           0  read in
    real space projection operators read in
  non local Contribution for L=           0  read in
    real space projection operators read in
  non local Contribution for L=           1  read in
    real space projection operators read in
  non local Contribution for L=           1  read in
    real space projection operators read in
    augmentation charges read in
 
   number of l-projection  operators is LMAX  =           4
   number of lm-projection operators is LMMAX =           8
 
 POTCAR:    US O                                  
   VRHFIN =O: s2p4                                                              
   LEXCH  = 91                                                                  
   EATOM  =   429.1268 eV,   31.5399 Ry                                         
   TITEL  = US O                                                                
   LULTRA =        T    use ultrasoft PP ?                                      
   IUNSCR =        0    unscreen: 0-lin 1-nonlin 2-no                           
   RPACOR =     .000    partial core radius                                     
   POMASS =   16.000; ZVAL   =    6.000    mass and valenz                      
   RCORE  =    1.550    outmost cutoff radius                                   
   RWIGS  =    1.400; RWIGS  =     .741    wigner-seitz radius (au A)           
   ENMAX  =  395.994; ENMIN  =  296.995 eV                                      
   EAUG   =  700.000                                                            
                                                                                
   ICORE  =        2    local potential                                         
   LCOR   =        T    correct aug charges                                     
   RMAX   =    2.317    core radius for proj-oper                               
   QCUT   =   -5.395; QGAM   =   10.790    optimization parameters              
                                                                                
   Description                                                                  
     l     E      TYP  RCUT    TYP  RCUT                                        
     0   .000     15  1.130    23  1.400                                        
     0   .000     15  1.130    23  1.400                                        
     1   .000     15  1.130    23  1.550                                        
     1   .000     15  1.130    23  1.550                                        
     2   .000      7  1.550     7  1.550                                        
  local pseudopotential read in
  atomic valenz-charges read in
  non local Contribution for L=           0  read in
    real space projection operators read in
  non local Contribution for L=           0  read in
    real space projection operators read in
  non local Contribution for L=           1  read in
    real space projection operators read in
  non local Contribution for L=           1  read in
    real space projection operators read in
    augmentation charges read in
 
   number of l-projection  operators is LMAX  =           4
   number of lm-projection operators is LMMAX =           8
 
 POTCAR:    US H                                  
   VRHFIN =H: ultrasoft test                                                    
   LEXCH  = 91                                                                  
   EATOM  =    12.5294 eV,     .9209 Ry                                         
   TITEL  = US H                                                                
   LULTRA =        T    use ultrasoft PP ?                                      
   IUNSCR =        0    unscreen: 0-lin 1-nonlin 2-no                           
   RPACOR =     .000    partial core radius                                     
   POMASS =    1.000; ZVAL   =    1.000    mass and valenz                      
   RCORE  =    1.250    outmost cutoff radius                                   
   RWIGS  =     .570; RWIGS  =     .302    wigner-seitz radius (au A)           
   ENMAX  =  200.000; ENMIN  =  200.000 eV  200 eV set by hand                  
   EAUG   =  400.000    set by hand                                             
                                                                                
   RCLOC  =     .654    cutoff for local pot                                    
   LCOR   =        T    correct aug charges                                     
   RMAX   =    3.000    core radius for proj-oper                               
   QCUT   =   -3.834; QGAM   =    7.668    optimization parameters              
                                                                                
   Description                                                                  
     l     E      TYP  RCUT    TYP  RCUT                                        
     0   .000     15   .800    23  1.250                                        
     0   .500     15   .800    23  1.250                                        
     1  -.200     15   .800    23  1.250                                        
  local pseudopotential read in
  atomic valenz-charges read in
  non local Contribution for L=           0  read in
    real space projection operators read in
  non local Contribution for L=           0  read in
    real space projection operators read in
  non local Contribution for L=           1  read in
    real space projection operators read in
    augmentation charges read in
 
   number of l-projection  operators is LMAX  =           3
   number of lm-projection operators is LMMAX =           5
 
 Optimization of the real space projectors (new method)

 maximal supplied QI-value         = 12.66
 optimisation between [QCUT,QGAM] = [  8.86, 17.73] = [ 22.00, 87.98] Ry 
 Optimized for a Real-space Cutoff    1.96 Angstroem

   l    n(q)    QCUT    max X(q) W(low)/X(q) W(high)/X(q)  e(spline) 
   2      9     8.863     8.992    0.11E-03    0.37E-04    0.16E-06
   2      9     8.863     1.780    0.16E-03    0.52E-04    0.19E-06
   0     10     8.863    13.960    0.22E-04    0.29E-05    0.76E-07
   0     10     8.863     3.344    0.53E-04    0.28E-05    0.11E-06
   1     10     8.863     6.276    0.36E-04    0.46E-04    0.80E-07
   1     10     8.863     1.674    0.62E-04    0.74E-04    0.12E-06
 Optimization of the real space projectors (new method)

 maximal supplied QI-value         = 15.12
 optimisation between [QCUT,QGAM] = [  8.77, 17.69] = [ 21.53, 87.61] Ry 
 Optimized for a Real-space Cutoff    1.55 Angstroem

   l    n(q)    QCUT    max X(q) W(low)/X(q) W(high)/X(q)  e(spline) 
   0      8     8.768     4.338    0.79E-04    0.11E-03    0.34E-07
   0      8     8.768     5.127    0.75E-04    0.86E-04    0.48E-07
   1      8     8.768     1.829    0.21E-03    0.64E-04    0.93E-07
   1      8     8.768     1.623    0.16E-03    0.19E-03    0.82E-07
   2      7     8.768     0.937    0.10E-03    0.11E-03    0.50E-07
 Optimization of the real space projectors (new method)

 maximal supplied QI-value         = 16.06
 optimisation between [QCUT,QGAM] = [  8.83, 17.67] = [ 21.86, 87.42] Ry 
 Optimized for a Real-space Cutoff    1.46 Angstroem

   l    n(q)    QCUT    max X(q) W(low)/X(q) W(high)/X(q)  e(spline) 
   0      8     8.834    13.298    0.14E-03    0.15E-04    0.33E-07
   0      8     8.834     2.029    0.23E-03    0.21E-04    0.52E-07
   1      7     8.834     4.889    0.74E-04    0.18E-03    0.59E-07
   1      7     8.834     1.117    0.15E-03    0.32E-03    0.97E-07
 Optimization of the real space projectors (new method)

 maximal supplied QI-value         = 20.79
 optimisation between [QCUT,QGAM] = [  8.73, 17.67] = [ 21.34, 87.42] Ry 
 Optimized for a Real-space Cutoff    1.59 Angstroem

   l    n(q)    QCUT    max X(q) W(low)/X(q) W(high)/X(q)  e(spline) 
   0      8     8.731     3.198    0.37E-04    0.19E-03    0.23E-06
   0      8     8.731     4.320    0.74E-04    0.27E-03    0.26E-06
   1      8     8.731     4.119    0.11E-03    0.48E-04    0.31E-06
   1      8     8.731     0.834    0.18E-03    0.11E-03    0.35E-06
 Optimization of the real space projectors (new method)

 maximal supplied QI-value         = 24.38
 optimisation between [QCUT,QGAM] = [  8.78, 17.55] = [ 21.57, 86.27] Ry 
 Optimized for a Real-space Cutoff    1.90 Angstroem

   l    n(q)    QCUT    max X(q) W(low)/X(q) W(high)/X(q)  e(spline) 
   0     10     8.776     2.154    0.71E-04    0.71E-04    0.47E-06
   0     10     8.776     3.268    0.75E-04    0.55E-04    0.73E-06
   1     10     8.776     4.382    0.13E-03    0.32E-03    0.49E-06
   1     10     8.776     0.177    0.20E-03    0.48E-03    0.63E-06
 Optimization of the real space projectors (new method)

 maximal supplied QI-value         = 30.24
 optimisation between [QCUT,QGAM] = [  8.77, 17.54] = [ 21.53, 86.12] Ry 
 Optimized for a Real-space Cutoff    1.79 Angstroem

   l    n(q)    QCUT    max X(q) W(low)/X(q) W(high)/X(q)  e(spline) 
   0      9     8.768     1.240    0.12E-03    0.35E-03    0.47E-06
   0      9     8.768     0.155    0.19E-03    0.51E-03    0.57E-06
   1      9     8.768     0.746    0.17E-04    0.12E-03    0.68E-06
  US Cd                                 :
 energy of atom  1       EATOM=-1507.8696
 kinetic energy error for atom=    0.0026 (will be added to EATOM!!)
  US Se                                 :
 energy of atom  2       EATOM= -310.2335
 kinetic energy error for atom=    0.0015 (will be added to EATOM!!)
  US P                                  :
 energy of atom  3       EATOM= -186.0002
 kinetic energy error for atom=    0.0020 (will be added to EATOM!!)
  US C                                  :
 energy of atom  4       EATOM= -146.0548
 kinetic energy error for atom=    0.0121 (will be added to EATOM!!)
  US O                                  :
 energy of atom  5       EATOM= -429.1268
 kinetic energy error for atom=    0.7949 (will be added to EATOM!!)
  US H                                  :
 energy of atom  6       EATOM=  -12.5294
 kinetic energy error for atom=    0.0147 (will be added to EATOM!!)
 
 
 POSCAR: CdSe                                    
  positions in direct lattice
  No initial velocities read in
 exchange correlation table for  LEXCH =        7
   RHO(1)=    0.500       N(1)  =     2000
   RHO(2)=  100.500       N(2)  =     4000
 


--------------------------------------------------------------------------------------------------------


 ion  position               nearest neighbor table
   1  0.194  0.957  0.078-  66 2.53  64 2.54  65 2.64   7 3.01  19 3.43
   2  0.801  0.023  0.014-  35 2.47  34 2.55  36 2.70  10 3.49   4 3.59  13 3.78
   3  0.824  0.996  0.135-  39 2.54  41 2.56  35 2.61   6 2.92  14 3.43
   4  0.865  0.018  0.913-  42 2.53  34 2.56  36 2.66  43 3.24  12 3.36  13 3.37   2 3.59  10 3.77

   5  0.880  0.153  0.014-  36 2.54  38 2.58  37 2.60   8 2.92  13 3.64   6 3.78
   6  0.852  0.088  0.118-  37 2.57  39 2.64  35 2.69  44 2.77   3 2.92   5 3.78
   7  0.208  0.029  0.009-  69 2.20  65 2.58  59 2.63  66 2.71   1 3.01  67 3.31
   8  0.940  0.189  0.080-  37 2.54  48 2.55  38 2.65   5 2.92  17 3.49  18 3.78
   9  0.092  0.848  0.134-  62 2.56  64 2.58  61 2.61  24 3.01  28 3.42
  10  0.852  0.921  0.991-  40 2.56  34 2.60  43 2.67  41 2.77   2 3.49  11 3.49   4 3.77
  11  0.866  0.851  0.083-  41 2.54  51 2.54  40 2.66  21 2.94  10 3.49
  12  0.954  0.954  0.889-  52 2.55  43 2.58  42 2.61  26 3.30  16 3.34   4 3.36
  13  0.926  0.041  0.004-  44 2.56  47 2.62  36 2.64  43 2.70   4 3.37   5 3.64   2 3.78
  14  0.929  0.957  0.116-  54 2.61  45 2.61  41 2.67  44 2.67  15 3.32   3 3.43  25 3.71
  15  0.928  0.028  0.200-  49 2.54  45 2.56  39 2.58  14 3.32  44 3.34  18 3.72
  16  0.986  0.060  0.889-  42 2.56  47 2.57  55 2.60  26 3.26  12 3.34  30 3.42
  17  0.005  0.167  0.986-  38 2.54  50 2.59  47 2.66  48 2.85   8 3.49  31 3.57
  18  0.999  0.084  0.116-  49 2.61  44 2.63  57 2.66  48 2.67  29 3.31  20 3.40  15 3.72   8 3.78

  19  0.143  0.912  0.987-  65 2.54  63 2.60  56 2.67  64 2.84   1 3.43  33 3.67  22 3.76
  20  0.087  0.153  0.134-  46 2.52  48 2.58  60 2.66  32 2.88  18 3.40
  21  0.926  0.815  0.014-  53 2.55  40 2.58  51 2.61  11 2.94  23 3.69
  22  0.051  0.871  0.912-  52 2.53  63 2.54  53 2.67  56 3.25  23 3.38  26 3.40  33 3.54  19 3.76

  23  0.000  0.913  0.004-  54 2.56  53 2.64  43 2.65  56 2.69  22 3.38  33 3.68  21 3.69
  24  0.996  0.824  0.120-  51 2.56  62 2.63  61 2.69  54 2.79   9 3.01
  25  0.009  0.921  0.203-  45 2.53  58 2.57  62 2.59  28 3.36  54 3.44  14 3.71
  26  0.060  0.981  0.889-  55 2.56  56 2.58  52 2.62  16 3.26  12 3.30  22 3.40
  27  0.070  0.041  0.004-  57 2.56  59 2.60  56 2.65  47 2.66  30 3.42  31 3.70
  28  0.070  0.958  0.116-  58 2.61  57 2.62  64 2.66  54 2.66  25 3.36   9 3.42  29 3.66
  29  0.060  0.046  0.200-  58 2.53  49 2.56  46 2.60  18 3.31  57 3.33  28 3.66
  30  0.088  0.106  0.912-  55 2.54  50 2.56  59 2.63  47 3.36  31 3.40  27 3.42  16 3.42
  31  0.121  0.153  0.010-  60 2.50  50 2.55  59 2.66  30 3.40  17 3.57  27 3.70
  32  0.149  0.082  0.116-  66 2.56  46 2.65  60 2.69  57 2.73  20 2.88
  33  0.074  0.815  0.014-  61 2.48  63 2.56  53 2.68  22 3.54  19 3.67  23 3.68
  34  0.800  0.973  0.945-   2 2.55   4 2.56  10 2.60
  35  0.776  0.051  0.087-   2 2.47   3 2.61   6 2.69
  36  0.855  0.083  0.973-   5 2.54  13 2.64   4 2.66   2 2.70
  37  0.859  0.170  0.096-   8 2.54   6 2.57   5 2.60
  38  0.936  0.215  0.996-  17 2.54   5 2.58   8 2.65
  39  0.844  0.050  0.197-   3 2.54  15 2.58   6 2.64
  40  0.844  0.837  0.998-  10 2.56  21 2.58  11 2.66
  41  0.850  0.935  0.082-  11 2.54   3 2.56  14 2.67  10 2.77
  42  0.920  0.023  0.849-   4 2.53  16 2.56  12 2.61
  43  0.931  0.957  0.972-  12 2.58  23 2.65  10 2.67  13 2.70   4 3.24
  44  0.927  0.042  0.090-  13 2.56  18 2.63  14 2.67   6 2.77  15 3.34
  45  0.928  0.943  0.202-  25 2.53  15 2.56  14 2.61
  46  0.122  0.107  0.196-  20 2.52  29 2.60  32 2.65
  47  0.997  0.080  0.972-  16 2.57  13 2.62  17 2.66  27 2.66  30 3.36
  48  0.021  0.162  0.080-   8 2.55  20 2.58  18 2.67  17 2.85
  49  0.986  0.089  0.201-  15 2.54  29 2.56  18 2.61
  50  0.078  0.185  0.944-  31 2.55  30 2.56  17 2.59
  51  0.922  0.789  0.097-  11 2.54  24 2.56  21 2.61
  52  0.019  0.916  0.849-  22 2.53  12 2.55  26 2.62
  53  0.997  0.831  0.971-  21 2.55  23 2.64  22 2.67  33 2.68
  54  0.999  0.912  0.089-  23 2.56  14 2.61  28 2.66  24 2.79  25 3.44
  55  0.062  0.056  0.848-  30 2.54  26 2.56  16 2.60
  56  0.069  0.959  0.972-  26 2.58  27 2.65  19 2.67  23 2.69  22 3.25
  57  0.073  0.041  0.089-  27 2.56  28 2.62  18 2.66  32 2.73  29 3.33
  58  0.083  0.965  0.202-  29 2.53  25 2.57  28 2.61
  59  0.143  0.076  0.973-  27 2.60  30 2.63   7 2.63  31 2.66
  60  0.159  0.165  0.083-  31 2.50  20 2.66  32 2.69
  61  0.066  0.779  0.088-  33 2.48   9 2.61  24 2.69
  62  0.035  0.839  0.197-   9 2.56  25 2.59  24 2.63
  63  0.121  0.838  0.947-  22 2.54  33 2.56  19 2.60
  64  0.129  0.903  0.080-   1 2.54   9 2.58  28 2.66  19 2.84
  65  0.221  0.945  0.995-  19 2.54   7 2.58   1 2.64
  66  0.219  0.035  0.099-   1 2.53  32 2.56   7 2.71
  67  0.277  0.114  0.014-  69 1.51  70 1.58  71 1.58  68 1.77   7 3.31
  68  0.324  0.139  0.988-  75 1.11  74 1.11  76 1.11  67 1.77
  69  0.261  0.074  0.987-  67 1.51   7 2.20
  70  0.293  0.102  0.062-  72 1.02  67 1.58
  71  0.242  0.153  0.017-  73 1.02  67 1.58
  72  0.274  0.077  0.077-  70 1.02
  73  0.219  0.153  0.042-  71 1.02
  74  0.337  0.166  0.009-  68 1.11
  75  0.350  0.113  0.982-  68 1.11
  76  0.314  0.153  0.955-  68 1.11
 
  LATTYP: Found a simple cubic cell.
 ALAT       =    30.0000000000
  
  Lattice vectors:
  
 A1 = (  30.0000000000,   0.0000000000,   0.0000000000)
 A2 = (   0.0000000000,  30.0000000000,   0.0000000000)
 A3 = (   0.0000000000,   0.0000000000,  30.0000000000)
 Subroutine PRICEL returns:
 Original cell was already a primitive cell.
 

Analysis of symmetry for initial positions (statically):

 Routine SETGRP: Setting up the symmetry group for a 
 simple cubic supercell.


 Subroutine GETGRP returns: Found  1 space group operations
 (whereof  1 operations were pure point group operations)
 out of a pool of 48 trial point group operations.


The static configuration has the point symmetry C_1 .

Analysis of symmetry for dynamics (positions and initial velocities):

 Subroutine DYNSYM returns: Found  1 space group operations
 (whereof  1 operations were pure point group operations)
 out of a pool of  1 trial space group operations
 (whereof  1 operations were pure point group operations)
 and found also     1 'primitive' translations


The dynamic configuration has the point symmetry C_1 .

Analysis of constrained symmetry for selective dynamics:

 Subroutine DYNSYM returns: Found  1 space group operations
 (whereof  1 operations were pure point group operations)
 out of a pool of  1 trial space group operations
 (whereof  1 operations were pure point group operations)
 and found also     1 'primitive' translations


The constrained configuration has the point symmetry C_1 .
 
 
 KPOINTS: Automatic mesh                          

Automatic generation of k-mesh.
