    5    5   10    1
  0.2946466E+02  0.1063354E-08  0.1073982E-08  0.1073982E-08  0.5000000E-15
  1.000000000000000E-004
  CAR 
 Sb2Te3                                  
   28   76   20
