Warning: no access to tty (Bad file descriptor).
Thus no job control in this shell.
CMA: unable to open /dev/infiniband/rdma_cm
CMA: unable to open /dev/infiniband/rdma_cm
CMA: unable to open /dev/infiniband/rdma_cm
CMA: unable to open /dev/infiniband/rdma_cm
CMA: unable to open /dev/infiniband/rdma_cm
CMA: unable to open /dev/infiniband/rdma_cm
CMA: unable to open /dev/infiniband/rdma_cm
CMA: unable to open /dev/infiniband/rdma_cm
CMA: unable to open /dev/infiniband/rdma_cm
CMA: unable to open /dev/infiniband/rdma_cm
CMA: unable to open /dev/infiniband/rdma_cm
CMA: unable to open /dev/infiniband/rdma_cm
CMA: unable to open /dev/infiniband/rdma_cm
CMA: unable to open /dev/infiniband/rdma_cm
CMA: unable to open /dev/infiniband/rdma_cm
CMA: unable to open /dev/infiniband/rdma_cm
CMA: unable to open /dev/infiniband/rdma_cm
CMA: unable to open /dev/infiniband/rdma_cm
CMA: unable to open /dev/infiniband/rdma_cm
CMA: unable to open /dev/infiniband/rdma_cm
CMA: unable to open /dev/infiniband/rdma_cm
CMA: unable to open /dev/infiniband/rdma_cm
CMA: unable to open /dev/infiniband/rdma_cm
CMA: unable to open /dev/infiniband/rdma_cm
CMA: unable to open /dev/infiniband/rdma_cm
CMA: unable to open /dev/infiniband/rdma_cm
CMA: unable to open /dev/infiniband/rdma_cm
CMA: unable to open /dev/infiniband/rdma_cm
CMA: unable to open /dev/infiniband/rdma_cm
CMA: unable to open /dev/infiniband/rdma_cm
CMA: unable to open /dev/infiniband/rdma_cm
CMA: unable to open /dev/infiniband/rdma_cm
 running on   32 nodes
 distr:  one band on    8 nodes,    4 groups
 vasp.5.2.2 15Apr09 complex 
 POSCAR found type information on POSCAR  Sb Te
 POSCAR found :  2 types and    5 ions
 LDA part: xc-table for Pade appr. of Perdew
 generate k-points for:   7   6   6
 POSCAR, INCAR and KPOINTS ok, starting setup
 WARNING: small aliasing (wrap around) errors must be expected
 FFT: planning ...(           1 )
 reading WAVECAR
 entering main loop
       N       E                     dE             d eps       ncg     rms          rms(c)
DAV:   1     0.927211828002E+02    0.92721E+02   -0.70290E+03  3040   0.684E+02
DAV:   2    -0.107701303402E+02   -0.10349E+03   -0.10024E+03  3948   0.143E+02
DAV:   3    -0.173580423472E+02   -0.65879E+01   -0.64496E+01  3688   0.387E+01
DAV:   4    -0.174826309323E+02   -0.12459E+00   -0.12417E+00  4300   0.607E+00
DAV:   5    -0.174838752659E+02   -0.12443E-02   -0.12438E-02  3748   0.543E-01
DAV:   6    -0.174839152741E+02   -0.40008E-04   -0.40004E-04  4472   0.733E-02
DAV:   7    -0.174839157108E+02   -0.43677E-06   -0.43828E-06  3296   0.583E-03
DAV:   8    -0.174839157330E+02   -0.22131E-07   -0.21306E-07  2500   0.122E-03    0.203E+00
RMM:   9    -0.173967369151E+02    0.87179E-01   -0.15721E-01  3040   0.140E+00    0.108E+00
RMM:  10    -0.173923680117E+02    0.43689E-02   -0.37330E-02  3043   0.777E-01    0.439E-01
RMM:  11    -0.173929471852E+02   -0.57917E-03   -0.46301E-03  3043   0.361E-01    0.102E-01
RMM:  12    -0.173931936744E+02   -0.24649E-03   -0.48571E-04  3104   0.126E-01    0.278E-02
RMM:  13    -0.173931999392E+02   -0.62648E-05   -0.13702E-04  3040   0.542E-02    0.659E-03
RMM:  14    -0.173932001764E+02   -0.23722E-06   -0.11521E-05  3040   0.164E-02    0.294E-03
RMM:  15    -0.173931983029E+02    0.18735E-05   -0.18320E-06  1983   0.724E-03    0.648E-04
RMM:  16    -0.173931983756E+02   -0.72672E-07   -0.49824E-07  1876   0.336E-03
   1 F= -.17393198E+02 E0= -.17393131E+02  d E =-.173932E+02
 curvature:   0.00 expect dE= 0.000E+00 dE for cont linesearch  0.000E+00
 trial: gam= 0.00000 g(F)=  0.000E+00 g(S)=  0.000E+00 ort = 0.000E+00 (trialstep = 0.100E+01)
 search vector abs. value=  0.100E-09
 reached required accuracy - stopping structural energy minimisation
 writing wavefunctions
