<?xml version="1.0" encoding="ISO-8859-1"?>
<modeling>
 <generator>
  <i name="program" type="string">vasp </i>
  <i name="version" type="string">5.2.2  </i>
  <i name="subversion" type="string">15Apr09 complex  parallel </i>
  <i name="platform" type="string">LinuxIFC </i>
  <i name="date" type="string">2011 05 31 </i>
  <i name="time" type="string">11:36:34 </i>
 </generator>
 <incar>
  <i type="string" name="SYSTEM"> Sb2Te3</i>
  <i type="string" name="PREC">accurate  ! calcululation level (change</i>
  <i type="string" name="ALGO"> FAST      ! A Davidson blocked iteratio</i>
  <i type="logical" name="ADDGRID"> T  </i>
  <i type="int" name="ISPIN">     1</i>
  <i type="int" name="INIWAV">     1</i>
  <i type="int" name="NELM">    40</i>
  <i type="int" name="NELMDL">    -8</i>
  <i type="int" name="NELMIN">     4</i>
  <i type="int" name="IBRION">     2</i>
  <i name="EDIFF">      0.00000100</i>
  <i name="EDIFFG">     -0.00500000</i>
  <i type="int" name="NSW">    10</i>
  <i type="int" name="ISIF">     0</i>
  <i name="ENCUT">    288.00000000</i>
  <i name="POTIM">      0.50000000</i>
  <i type="logical" name="LPLANE"> T  </i>
  <i type="int" name="ISMEAR">     0</i>
  <i name="SIGMA">      0.01000000</i>
  <i type="int" name="NWRITE">     2</i>
  <i type="logical" name="LASPH"> T  </i>
  <i type="int" name="NELM">    40</i>
  <i type="logical" name="LPEAD"> F  </i>
  <i type="logical" name="LCALCPOL"> F  </i>
  <i type="logical" name="LCALCEPS"> F  </i>
  <v name="EFIELD_PEAD">      0.00000000      0.00000000      0.00000000</v>
  <i type="logical" name="LEFG"> F  </i>
 </incar>
 <kpoints>
  <generation param="Auto">
   <i name="subdivisionlength">     22.00000000 </i>
   <v type="int" name="divisions">       7        6        6 </v>
   <v name="usershift">      0.00000000       0.00000000       0.00000000 </v>
   <v name="genvec1">      0.14285714       0.00000000       0.00000000 </v>
   <v name="genvec2">      0.00000000       0.16666667       0.00000000 </v>
   <v name="genvec3">      0.00000000       0.00000000       0.16666667 </v>
   <v name="shift">      0.00000000       0.00000000       0.00000000 </v>
  </generation>
  <varray name="kpointlist" >
   <v>       0.00000000       0.00000000       0.00000000 </v>
   <v>       0.14285714       0.00000000       0.00000000 </v>
   <v>       0.28571429       0.00000000       0.00000000 </v>
   <v>       0.42857143       0.00000000       0.00000000 </v>
   <v>       0.00000000       0.16666667       0.00000000 </v>
   <v>       0.14285714       0.16666667       0.00000000 </v>
   <v>       0.28571429       0.16666667       0.00000000 </v>
   <v>       0.42857143       0.16666667       0.00000000 </v>
   <v>      -0.42857143       0.16666667       0.00000000 </v>
   <v>      -0.28571429       0.16666667       0.00000000 </v>
   <v>      -0.14285714       0.16666667       0.00000000 </v>
   <v>       0.00000000       0.33333333       0.00000000 </v>
   <v>       0.14285714       0.33333333       0.00000000 </v>
   <v>       0.28571429       0.33333333       0.00000000 </v>
   <v>       0.42857143       0.33333333       0.00000000 </v>
   <v>      -0.42857143       0.33333333       0.00000000 </v>
   <v>      -0.28571429       0.33333333       0.00000000 </v>
   <v>      -0.14285714       0.33333333       0.00000000 </v>
   <v>       0.00000000       0.50000000       0.00000000 </v>
   <v>       0.14285714       0.50000000       0.00000000 </v>
   <v>       0.28571429       0.50000000       0.00000000 </v>
   <v>       0.42857143       0.50000000       0.00000000 </v>
   <v>       0.00000000       0.16666667       0.16666667 </v>
   <v>       0.14285714       0.16666667       0.16666667 </v>
   <v>       0.28571429       0.16666667       0.16666667 </v>
   <v>       0.42857143       0.16666667       0.16666667 </v>
   <v>      -0.42857143       0.16666667       0.16666667 </v>
   <v>      -0.28571429       0.16666667       0.16666667 </v>
   <v>      -0.14285714       0.16666667       0.16666667 </v>
   <v>       0.00000000       0.33333333       0.16666667 </v>
   <v>       0.14285714       0.33333333       0.16666667 </v>
   <v>       0.28571429       0.33333333       0.16666667 </v>
   <v>       0.42857143       0.33333333       0.16666667 </v>
   <v>      -0.42857143       0.33333333       0.16666667 </v>
   <v>      -0.28571429       0.33333333       0.16666667 </v>
   <v>      -0.14285714       0.33333333       0.16666667 </v>
   <v>       0.00000000       0.50000000       0.16666667 </v>
   <v>       0.14285714       0.50000000       0.16666667 </v>
   <v>       0.28571429       0.50000000       0.16666667 </v>
   <v>       0.42857143       0.50000000       0.16666667 </v>
   <v>      -0.42857143       0.50000000       0.16666667 </v>
   <v>      -0.28571429       0.50000000       0.16666667 </v>
   <v>      -0.14285714       0.50000000       0.16666667 </v>
   <v>       0.00000000      -0.33333333       0.16666667 </v>
   <v>       0.14285714      -0.33333333       0.16666667 </v>
   <v>       0.28571429      -0.33333333       0.16666667 </v>
   <v>       0.42857143      -0.33333333       0.16666667 </v>
   <v>      -0.42857143      -0.33333333       0.16666667 </v>
   <v>      -0.28571429      -0.33333333       0.16666667 </v>
   <v>      -0.14285714      -0.33333333       0.16666667 </v>
   <v>       0.00000000      -0.16666667       0.16666667 </v>
   <v>       0.14285714      -0.16666667       0.16666667 </v>
   <v>       0.28571429      -0.16666667       0.16666667 </v>
   <v>       0.42857143      -0.16666667       0.16666667 </v>
   <v>       0.00000000       0.33333333       0.33333333 </v>
   <v>       0.14285714       0.33333333       0.33333333 </v>
   <v>       0.28571429       0.33333333       0.33333333 </v>
   <v>       0.42857143       0.33333333       0.33333333 </v>
   <v>      -0.42857143       0.33333333       0.33333333 </v>
   <v>      -0.28571429       0.33333333       0.33333333 </v>
   <v>      -0.14285714       0.33333333       0.33333333 </v>
   <v>       0.00000000       0.50000000       0.33333333 </v>
   <v>       0.14285714       0.50000000       0.33333333 </v>
   <v>       0.28571429       0.50000000       0.33333333 </v>
   <v>       0.42857143       0.50000000       0.33333333 </v>
   <v>      -0.42857143       0.50000000       0.33333333 </v>
   <v>      -0.28571429       0.50000000       0.33333333 </v>
   <v>      -0.14285714       0.50000000       0.33333333 </v>
   <v>       0.00000000      -0.33333333       0.33333333 </v>
   <v>       0.14285714      -0.33333333       0.33333333 </v>
   <v>       0.28571429      -0.33333333       0.33333333 </v>
   <v>       0.42857143      -0.33333333       0.33333333 </v>
   <v>       0.00000000       0.50000000       0.50000000 </v>
   <v>       0.14285714       0.50000000       0.50000000 </v>
   <v>       0.28571429       0.50000000       0.50000000 </v>
   <v>       0.42857143       0.50000000       0.50000000 </v>
  </varray>
  <varray name="weights" >
   <v>       0.00396825 </v>
   <v>       0.00793651 </v>
   <v>       0.00793651 </v>
   <v>       0.00793651 </v>
   <v>       0.01587302 </v>
   <v>       0.01587302 </v>
   <v>       0.01587302 </v>
   <v>       0.01587302 </v>
   <v>       0.01587302 </v>
   <v>       0.01587302 </v>
   <v>       0.01587302 </v>
   <v>       0.01587302 </v>
   <v>       0.01587302 </v>
   <v>       0.01587302 </v>
   <v>       0.01587302 </v>
   <v>       0.01587302 </v>
   <v>       0.01587302 </v>
   <v>       0.01587302 </v>
   <v>       0.00793651 </v>
   <v>       0.01587302 </v>
   <v>       0.01587302 </v>
   <v>       0.01587302 </v>
   <v>       0.00793651 </v>
   <v>       0.00793651 </v>
   <v>       0.00793651 </v>
   <v>       0.00793651 </v>
   <v>       0.00793651 </v>
   <v>       0.00793651 </v>
   <v>       0.00793651 </v>
   <v>       0.01587302 </v>
   <v>       0.01587302 </v>
   <v>       0.01587302 </v>
   <v>       0.01587302 </v>
   <v>       0.01587302 </v>
   <v>       0.01587302 </v>
   <v>       0.01587302 </v>
   <v>       0.01587302 </v>
   <v>       0.01587302 </v>
   <v>       0.01587302 </v>
   <v>       0.01587302 </v>
   <v>       0.01587302 </v>
   <v>       0.01587302 </v>
   <v>       0.01587302 </v>
   <v>       0.01587302 </v>
   <v>       0.01587302 </v>
   <v>       0.01587302 </v>
   <v>       0.01587302 </v>
   <v>       0.01587302 </v>
   <v>       0.01587302 </v>
   <v>       0.01587302 </v>
   <v>       0.00793651 </v>
   <v>       0.01587302 </v>
   <v>       0.01587302 </v>
   <v>       0.01587302 </v>
   <v>       0.00793651 </v>
   <v>       0.00793651 </v>
   <v>       0.00793651 </v>
   <v>       0.00793651 </v>
   <v>       0.00793651 </v>
   <v>       0.00793651 </v>
   <v>       0.00793651 </v>
   <v>       0.01587302 </v>
   <v>       0.01587302 </v>
   <v>       0.01587302 </v>
   <v>       0.01587302 </v>
   <v>       0.01587302 </v>
   <v>       0.01587302 </v>
   <v>       0.01587302 </v>
   <v>       0.00793651 </v>
   <v>       0.01587302 </v>
   <v>       0.01587302 </v>
   <v>       0.01587302 </v>
   <v>       0.00396825 </v>
   <v>       0.00793651 </v>
   <v>       0.00793651 </v>
   <v>       0.00793651 </v>
  </varray>
 </kpoints>
 <parameters>
  <separator name="general" >
   <i type="string" name="SYSTEM">Sb2Te3</i>
   <i type="logical" name="LCOMPAT"> F  </i>
  </separator>
  <separator name="electronic" >
   <i type="string" name="PREC">accura</i>
   <i name="ENMAX">    288.00000000</i>
   <i name="ENAUG">    380.51300000</i>
   <i name="EDIFF">      0.00000100</i>
   <i type="int" name="IALGO">    68</i>
   <i type="int" name="IWAVPR">    11</i>
   <i type="int" name="NBANDS">    20</i>
   <i name="NELECT">     28.00000000</i>
   <separator name="electronic smearing" >
    <i type="int" name="ISMEAR">     0</i>
    <i name="SIGMA">      0.01000000</i>
   </separator>
   <separator name="electronic projectors" >
    <i type="logical" name="LREAL"> F  </i>
    <v name="ROPT">      0.00000000      0.00000000</v>
    <i type="int" name="LMAXPAW">  -100</i>
    <i type="int" name="LMAXMIX">     2</i>
   </separator>
   <separator name="electronic startup" >
    <i type="int" name="ISTART">     0</i>
    <i type="int" name="ICHARG">     2</i>
    <i type="int" name="INIWAV">     1</i>
   </separator>
   <separator name="electronic spin" >
    <i type="int" name="ISPIN">     1</i>
    <i type="logical" name="LNONCOLLINEAR"> F  </i>
    <v name="MAGMOM">      1.00000000      1.00000000      1.00000000      1.00000000      1.00000000</v>
    <i name="NUPDOWN">     -1.00000000</i>
    <i type="logical" name="LSORBIT"> F  </i>
    <v name="SAXIS">      0.00000000      0.00000000      1.00000000</v>
    <i type="logical" name="LSPIRAL"> F  </i>
    <v name="QSPIRAL">      0.00000000      0.00000000      0.00000000</v>
    <i type="logical" name="LZEROZ"> F  </i>
   </separator>
   <separator name="electronic exchange-correlation" >
    <i type="logical" name="LASPH"> T  </i>
    <i type="logical" name="LMETAGGA"> F  </i>
   </separator>
   <separator name="electronic convergence" >
    <i type="int" name="NELM">    40</i>
    <i type="int" name="NELMDL">    -8</i>
    <i type="int" name="NELMIN">     4</i>
    <i name="ENINI">    288.00000000</i>
    <separator name="electronic convergence detail" >
     <i type="logical" name="LDIAG"> T  </i>
     <i name="WEIMIN">      0.00100000</i>
     <i name="EBREAK">      0.00000001</i>
     <i name="DEPER">      0.30000000</i>
     <i type="int" name="NRMM">     4</i>
     <i name="TIME">      0.40000000</i>
    </separator>
   </separator>
   <separator name="electronic mixer" >
    <i name="AMIX">      0.40000000</i>
    <i name="BMIX">      1.00000000</i>
    <i name="AMIN">      0.10000000</i>
    <i name="AMIX_MAG">      1.60000000</i>
    <i name="BMIX_MAG">      1.00000000</i>
    <separator name="electronic mixer details" >
     <i type="int" name="IMIX">     4</i>
     <i type="int" name="MAXMIX">   -45</i>
     <i name="WC">    100.00000000</i>
     <i type="int" name="INIMIX">     1</i>
     <i type="int" name="MIXPRE">     1</i>
     <i type="int" name="MREMOVE">     5</i>
    </separator>
   </separator>
   <separator name="electronic dipolcorrection" >
    <i type="logical" name="LDIPOL"> F  </i>
    <i type="logical" name="LMONO"> F  </i>
    <i type="int" name="IDIPOL">     0</i>
    <i name="EPSILON">      1.00000000</i>
    <v name="DIPOL">   -100.00000000   -100.00000000   -100.00000000</v>
    <i name="EFIELD">      0.00000000</i>
   </separator>
  </separator>
  <separator name="grids" >
   <i type="int" name="NGX">    60</i>
   <i type="int" name="NGY">    60</i>
   <i type="int" name="NGZ">    60</i>
   <i type="int" name="NGXF">   120</i>
   <i type="int" name="NGYF">   120</i>
   <i type="int" name="NGZF">   120</i>
   <i type="logical" name="ADDGRID"> T  </i>
  </separator>
  <separator name="ionic" >
   <i type="int" name="NSW">    10</i>
   <i type="int" name="IBRION">     2</i>
   <i type="int" name="ISIF">     0</i>
   <i name="PSTRESS">      0.00000000</i>
   <i name="EDIFFG">     -0.00500000</i>
   <i type="int" name="NFREE">     1</i>
   <i name="POTIM">      0.50000000</i>
   <i name="SMASS">     -3.00000000</i>
  </separator>
  <separator name="ionic md" >
   <i name="TEBEG">      0.00010000</i>
   <i name="TEEND">      0.00010000</i>
   <i type="int" name="NBLOCK">     1</i>
   <i type="int" name="KBLOCK">    10</i>
   <i type="int" name="NPACO">   256</i>
   <i name="APACO">     16.00000000</i>
  </separator>
  <separator name="symmetry" >
   <i type="int" name="ISYM">     2</i>
   <i name="SYMPREC">      0.00001000</i>
  </separator>
  <separator name="dos" >
   <i type="logical" name="LORBIT"> F  </i>
   <v name="RWIGS">     -1.00000000     -1.00000000</v>
   <i type="int" name="NEDOS">   301</i>
   <i name="EMIN">     10.00000000</i>
   <i name="EMAX">    -10.00000000</i>
   <i name="EFERMI">      0.00000000</i>
  </separator>
  <separator name="writing" >
   <i type="int" name="NWRITE">     2</i>
   <i type="logical" name="LWAVE"> T  </i>
   <i type="logical" name="LCHARG"> T  </i>
   <i type="logical" name="LPARD"> F  </i>
   <i type="logical" name="LVTOT"> F  </i>
   <i type="logical" name="LELF"> F  </i>
   <i type="logical" name="LOPTICS"> F  </i>
   <v name="STM">      0.00000000      0.00000000      0.00000000      0.00000000      0.00000000</v>
  </separator>
  <separator name="performance" >
   <i type="int" name="NPAR">     4</i>
   <i type="int" name="NSIM">     4</i>
   <i type="int" name="NBLK">    32</i>
   <i type="logical" name="LPLANE"> T  </i>
   <i type="logical" name="LSCALAPACK"> T  </i>
   <i type="logical" name="LSCAAWARE"> F  </i>
   <i type="logical" name="LSCALU"> F  </i>
   <i type="logical" name="LASYNC"> F  </i>
  </separator>
  <separator name="miscellaneous" >
   <i type="int" name="IDIOT">     3</i>
   <i type="logical" name="LMUSIC"> F  </i>
   <v name="POMASS">    121.75000000    127.60000000</v>
   <i type="logical" name="LCORR"> T  </i>
  </separator>
  <i type="logical" name="LREAL_COMPAT"> F  </i>
  <i type="logical" name="GGA_COMPAT"> T  </i>
  <i type="logical" name="LBERRY"> F  </i>
  <i type="int" name="ICORELEVEL">     0</i>
  <i type="logical" name="LDAU"> F  </i>
  <i type="int" name="I_CONSTRAINED_M">     0</i>
  <separator name="electronic exchange-correlation" >
   <i type="string" name="GGA">--</i>
   <i type="int" name="VOSKOWN">     0</i>
   <i type="logical" name="LHFCALC"> F  </i>
   <i type="logical" name="LHFONE"> F  </i>
   <i type="logical" name="LRHFCALC"> F  </i>
   <i type="logical" name="LTHOMAS"> F  </i>
   <i type="logical" name="LMODELHF"> F  </i>
   <i name="ENCUTFOCK">      0.00000000</i>
   <i name="ENCUT4O">     -1.00000000</i>
   <i type="int" name="EXXOEP">     0</i>
   <i type="int" name="FOURORBIT">     0</i>
   <i name="AEXX">      0.00000000</i>
   <i name="HFALPHA">      0.00000000</i>
   <i name="ALDAX">      1.00000000</i>
   <i name="AGGAX">      1.00000000</i>
   <i name="ALDAC">      1.00000000</i>
   <i name="AGGAC">      1.00000000</i>
   <i type="int" name="NKREDX">     1</i>
   <i type="int" name="NKREDY">     1</i>
   <i type="int" name="NKREDZ">     1</i>
   <i type="logical" name="SHIFTRED"> F  </i>
   <i type="logical" name="ODDONLY"> F  </i>
   <i type="logical" name="EVENONLY"> F  </i>
   <i type="int" name="LMAXFOCK">     0</i>
   <i type="int" name="NMAXFOCKAE">     0</i>
   <i name="HFSCREEN">      0.00000000</i>
   <i name="HFSCREENC">      0.00000000</i>
  </separator>
  <separator name="model GW" >
   <i type="int" name="MODEL_GW">     0</i>
   <i name="MODEL_EPS0">     17.67879488</i>
   <i name="MODEL_ALPHA">      1.00000000</i>
  </separator>
  <separator name="linear response parameters" >
   <i type="logical" name="LEPSILON"> F  </i>
   <i type="logical" name="LRPA"> F  </i>
   <i type="logical" name="LNABLA"> F  </i>
   <i type="logical" name="LVEL"> F  </i>
   <i type="int" name="KINTER">     0</i>
   <i name="CSHIFT">      0.10000000</i>
   <i name="OMEGAMAX">     -1.00000000</i>
  </separator>
  <separator name="orbital magnetization" >
   <i type="logical" name="ORBITALMAG"> F  </i>
   <i type="logical" name="LMAGBLOCH"> F  </i>
   <i type="logical" name="LCHIMAG"> F  </i>
   <i type="logical" name="LGAUGE"> T  </i>
   <i type="int" name="MAGATOM">     0</i>
   <v name="MAGDIPOL">      0.00000000      0.00000000      0.00000000</v>
   <v name="AVECCONST">      0.00000000      0.00000000      0.00000000</v>
  </separator>
  <separator name="response functions" >
   <i type="logical" name="LRPA"> T  </i>
   <i type="logical" name="LTCTE"> F  </i>
   <i type="logical" name="LTETE"> F  </i>
   <i type="logical" name="L2ORDER"> F  </i>
   <i type="logical" name="LGWLF"> F  </i>
   <i name="ENCUTGW">    192.00000000</i>
   <i name="ENCUTGWSOFT">     -2.00000000</i>
   <i name="ENCUTLF">     -1.00000000</i>
   <i type="int" name="LMAXMP2">    -1</i>
   <i name="SCISSOR">      0.00000000</i>
   <i type="int" name="NOMEGA">     0</i>
   <i type="int" name="NOMEGAR">     0</i>
   <i type="int" name="NBANDSGW">    -1</i>
   <i type="int" name="NBANDSLF">    -1</i>
   <i type="int" name="NELM">    40</i>
   <i type="int" name="DIM">     3</i>
   <i type="int" name="ANTIRES">     0</i>
   <i type="logical" name="LUSEW"> F  </i>
   <i name="OMEGAMAX">    -30.00000000</i>
   <i name="OMEGATL">   -200.00000000</i>
   <i type="int" name="OMEGAGRID">     0</i>
   <i name="CSHIFT">     -0.10000000</i>
   <i type="logical" name="SELFENERGY"> F  </i>
   <i type="logical" name="LSPECTRAL"> F  </i>
   <i type="logical" name="ODDONLYGW"> F  </i>
   <i type="logical" name="EVENONLYGW"> F  </i>
   <i type="int" name="NKREDLFX">     1</i>
   <i type="int" name="NKREDLFY">     1</i>
   <i type="int" name="NKREDLFZ">     1</i>
   <i type="int" name="MAXMEM">  1024</i>
   <i type="int" name="TELESCOPE">     0</i>
  </separator>
 </parameters>
 <atominfo>
  <atoms>       5 </atoms>
  <types>       2 </types>
  <array name="atoms" >
   <dimension dim="1">ion</dimension>
   <field type="string">element</field>
   <field type="int">atomtype</field>
   <set>
    <rc><c>Sb</c><c>   1</c></rc>
    <rc><c>Sb</c><c>   1</c></rc>
    <rc><c>Te</c><c>   2</c></rc>
    <rc><c>Te</c><c>   2</c></rc>
    <rc><c>Te</c><c>   2</c></rc>
   </set>
  </array>
  <array name="atomtypes" >
   <dimension dim="1">type</dimension>
   <field type="int">atomspertype</field>
   <field type="string">element</field>
   <field>mass</field>
   <field>valence</field>
   <field type="string">pseudopotential</field>
   <set>
    <rc><c>   2</c><c>Sb</c><c>    121.75000000</c><c>      5.00000000</c><c> PAW_PBE Sb 06Sep2000                   </c></rc>
    <rc><c>   3</c><c>Te</c><c>    127.60000000</c><c>      6.00000000</c><c> PAW_PBE Te 08Apr2002                   </c></rc>
   </set>
  </array>
 </atominfo>
 <structure name="initialpos" >
  <crystal>
   <varray name="basis" >
    <v>      -2.00000000       0.00000000      10.44376706 </v>
    <v>       1.25214310      -2.16877547      10.44376706 </v>
    <v>       1.25214310       2.16877547      10.44376706 </v>
   </varray>
   <i name="volume">    147.32329069 </i>
   <varray name="rec_basis" >
    <v>      -0.30748954       0.00000000       0.03686610 </v>
    <v>       0.15374477      -0.23054484       0.02944240 </v>
    <v>       0.15374477       0.23054484       0.02944240 </v>
   </varray>
  </crystal>
  <varray name="positions" >
   <v>       0.39679658       0.39679658       0.39679658 </v>
   <v>       0.60320340       0.60320340       0.60320340 </v>
   <v>       0.00000000       0.00000000       0.00000000 </v>
   <v>       0.78457133       0.78457133       0.78457133 </v>
   <v>       0.21542865       0.21542865       0.21542865 </v>
  </varray>
  <varray name="selective"  type="logical" >
   <v type="logical" >  F  F  F </v>
   <v type="logical" >  F  F  F </v>
   <v type="logical" >  F  F  F </v>
   <v type="logical" >  F  F  F </v>
   <v type="logical" >  F  F  F </v>
  </varray>
  <nose>
   <v>      -3.00000000       0.00000000       0.00010000       0.00010000 </v>
  </nose>
 </structure>
 <calculation>
  <scstep>
   <time name="dav"> 5036.3120091.92</time>
   <time name="total"> 5058.7620175.75</time>
   <energy>
    <i name="alphaZ">     -2.07456179 </i>
    <i name="ewald">  -1019.61231178 </i>
    <i name="hartreedc">    -61.49480768 </i>
    <i name="XCdc">   -175.07313186 </i>
    <i name="pawpsdc">    481.90385746 </i>
    <i name="pawaedc">   -258.39714194 </i>
    <i name="eentropy">     -0.00012092 </i>
    <i name="bandstr">    158.05770008 </i>
    <i name="atom">    969.41170123 </i>
    <i name="e_fr_energy">     92.72118280 </i>
    <i name="e_wo_entrp">     92.72130371 </i>
    <i name="e_0_energy">     92.72124326 </i>
   </energy>
  </scstep>
  <scstep>
   <time name="dav"> 5750.2622994.16</time>
   <time name="total"> 5757.9623021.77</time>
   <energy>
    <i name="e_fr_energy">    -10.77013034 </i>
    <i name="e_wo_entrp">    -10.77000148 </i>
    <i name="e_0_energy">    -10.77006591 </i>
   </energy>
  </scstep>
  <scstep>
   <time name="dav"> 5590.5622322.15</time>
   <time name="total"> 5597.6622351.22</time>
   <energy>
    <i name="e_fr_energy">    -17.35804235 </i>
    <i name="e_wo_entrp">    -17.35797393 </i>
    <i name="e_0_energy">    -17.35800814 </i>
   </energy>
  </scstep>
  <scstep>
