 vasp.4.6.36 17Feb09 gamma-only
 executed on             LinuxIFC date 2011.06.12  00:52:05
 running on   64 nodes
 distr:  one band on    1 nodes,   64 groups


--------------------------------------------------------------------------------------------------------


 INCAR:
