 running on   64 nodes
 distr:  one band on    1 nodes,   64 groups
 vasp.4.6.36 17Feb09 gamma-only
 POSCAR found :  0 types and    0 ions
 scaLAPACK will be used
