
  **** **** ******  **  PROGRAM STARTED AT               2011-06-09 21:27:50.807
 ***** ** ***  *** **   PROGRAM STARTED ON                              r11i1n11
 **    ****   ******    PROGRAM STARTED BY                                      
 ***** **    ** ** **   PROGRAM PROCESS ID                                  7965
  **** **  *******  **  PROGRAM STARTED IN /usr/local/u/jmlarkin/CP2K/CdSe/CP2K_
                                           opt_DZ

 CP2K| version string:                CP2K version 2.2.107 (Development Version)
 CP2K| is freely available from                          http://cp2k.berlios.de/
 CP2K| Program compiled at                          Tue Jun  7 13:15:52 CDT 2011
 CP2K| Program compiled on                                             diamond01
 CP2K| Program compiled for                                   Linux-x86-64-intel
 CP2K| Last CVS entry                 cp2k_info.F/1.511/Wed Jan 19 04:35:13 2011
 CP2K| Input file name                                                  cp2k.inp
 
 GLOBAL| Force Environment number                                              1
 GLOBAL| Basis set file name            /usr/local/u/jmlarkin/CP2K/CdSe/CP2k_opt
 GLOBAL| Geminal file name                                         BASIS_GEMINAL
 GLOBAL| Potential file name            /usr/local/u/jmlarkin/CP2K/CdSe/CP2k_opt
 GLOBAL| MM Potential file name                                     MM_POTENTIAL
 GLOBAL| Coordinate file name                                      __STD_INPUT__
 GLOBAL| Method name                                                        CP2K
 GLOBAL| Project name                                                       temp
 GLOBAL| Preferred FFT library                                             FFTW3
 GLOBAL| Run type                                                        GEO_OPT
 GLOBAL| All-to-all communication in single precision                          F
 GLOBAL| FFTs using library dependent lengths                                  F
 GLOBAL| Global print level                                                  LOW
 GLOBAL| Total number of message passing processes                            16
 GLOBAL| Number of threads for this process                                    1
 GLOBAL| This output is from process                                           0

 MEMORY| system memory details [Kb]
 MEMORY|                        rank 0           min           max       average
 MEMORY| MemTotal                    0             0             0             0
 MEMORY| MemFree                     0             0             0             0
 MEMORY| Buffers                     0             0             0             0
 MEMORY| Cached                      0             0             0             0
 MEMORY| Slab                        0             0             0             0
 MEMORY| SReclaimable                0             0             0             0
 MEMORY| MemLikelyFree               0             0             0             0

 WARNING : FFT library FFTW3 is not available  Trying FFTSG as a default
 
 GENERATE| WARNING:: No connections detected for Hydrogen - Atom Nr:        72 !
 GENERATE| WARNING:: No connections detected for Hydrogen - Atom Nr:        74 !
 GENERATE| WARNING:: No connections detected for Hydrogen - Atom Nr:        76 !
 GENERATE|  Preliminary Number of Bonds generated:                             0
 GENERATE|  Achieved consistency in connectivity generation.
 GENERATE|  Number of Bonds generated:                                         0
 GENERATE|  Preliminary Number of Bends generated:                             0
 GENERATE|  Number of Bends generated:                                         0
 GENERATE|  Number of UB generated:                                            0
 GENERATE|  Preliminary Number of Torsions generated:                          0
 GENERATE|  Number of Torsions generated:                                      0
 GENERATE|  Number of Impropers generated:                                     0
 GENERATE|  Number of 1-4 interactions generated:                              0

  **** **** ******  **  PROGRAM STARTED AT               2011-06-12 00:50:16.033
 ***** ** ***  *** **   PROGRAM STARTED ON                                r1i2n1
 **    ****   ******    PROGRAM STARTED BY                                      
 ***** **    ** ** **   PROGRAM PROCESS ID                                 23915
  **** **  *******  **  PROGRAM STARTED IN /usr/local/u/jmlarkin/CP2K/CdSe/CP2K_
                                           opt_DZ

 CP2K| version string:                CP2K version 2.2.107 (Development Version)
 CP2K| is freely available from                          http://cp2k.berlios.de/
 CP2K| Program compiled at                          Tue Jun  7 13:15:52 CDT 2011
 CP2K| Program compiled on                                             diamond01
 CP2K| Program compiled for                                   Linux-x86-64-intel
 CP2K| Last CVS entry                 cp2k_info.F/1.511/Wed Jan 19 04:35:13 2011
 CP2K| Input file name                                                  cp2k.inp
 
 GLOBAL| Force Environment number                                              1
 GLOBAL| Basis set file name            /usr/local/u/jmlarkin/CP2K/CdSe/CP2K_opt
 GLOBAL| Geminal file name                                         BASIS_GEMINAL
 GLOBAL| Potential file name            /usr/local/u/jmlarkin/CP2K/CdSe/CP2K_opt
 GLOBAL| MM Potential file name                                     MM_POTENTIAL
 GLOBAL| Coordinate file name                                      __STD_INPUT__
 GLOBAL| Method name                                                        CP2K
 GLOBAL| Project name                                                       temp
 GLOBAL| Preferred FFT library                                             FFTW3
 GLOBAL| Run type                                                        GEO_OPT
 GLOBAL| All-to-all communication in single precision                          F
 GLOBAL| FFTs using library dependent lengths                                  F
 GLOBAL| Global print level                                                  LOW
 GLOBAL| Total number of message passing processes                            64
 GLOBAL| Number of threads for this process                                    1
 GLOBAL| This output is from process                                           0

 MEMORY| system memory details [Kb]
 MEMORY|                        rank 0           min           max       average
 MEMORY| MemTotal                    0             0             0             0
 MEMORY| MemFree                     0             0             0             0
 MEMORY| Buffers                     0             0             0             0
 MEMORY| Cached                      0             0             0             0
 MEMORY| Slab                        0             0             0             0
 MEMORY| SReclaimable                0             0             0             0
 MEMORY| MemLikelyFree               0             0             0             0

 WARNING : FFT library FFTW3 is not available  Trying FFTSG as a default
 
 GENERATE| WARNING:: No connections detected for Hydrogen - Atom Nr:        72 !
 GENERATE| WARNING:: No connections detected for Hydrogen - Atom Nr:        74 !
 GENERATE| WARNING:: No connections detected for Hydrogen - Atom Nr:        76 !
 GENERATE|  Preliminary Number of Bonds generated:                             0
 GENERATE|  Achieved consistency in connectivity generation.
 GENERATE|  Number of Bonds generated:                                         0
 GENERATE|  Preliminary Number of Bends generated:                             0
 GENERATE|  Number of Bends generated:                                         0
 GENERATE|  Number of UB generated:                                            0
 GENERATE|  Preliminary Number of Torsions generated:                          0
 GENERATE|  Number of Torsions generated:                                      0
 GENERATE|  Number of Impropers generated:                                     0
 GENERATE|  Number of 1-4 interactions generated:                              0

 *******************************************************************************
 *******************************************************************************
 **                                                                           **
 **     #####                         ##              ##                      **
 **    ##   ##            ##          ##              ##                      **
 **   ##     ##                       ##            ######                    **
 **   ##     ##  ##   ##  ##   #####  ##  ##   ####   ##    #####    #####    **
 **   ##     ##  ##   ##  ##  ##      ## ##   ##      ##   ##   ##  ##   ##   **
 **   ##  ## ##  ##   ##  ##  ##      ####     ###    ##   ######   ######    **
 **    ##  ###   ##   ##  ##  ##      ## ##      ##   ##   ##       ##        **
 **     #######   #####   ##   #####  ##  ##  ####    ##    #####   ##        **
 **           ##                                                    ##        **
 **                                                                           **
 **                                                ... make the atoms dance   **
 **                                                                           **
 **            Copyright (C) by CP2K Developers Group (2000 - 2011)           **
 **                                                                           **
 *******************************************************************************


 SCF PARAMETERS         Density guess:                                   RESTART
                        --------------------------------------------------------
                        max_scf:                                              50
                        max_scf_history:                                       0
                        max_diis:                                              4
                        --------------------------------------------------------
                        eps_scf:                                        5.00E-07
                        eps_scf_history:                                0.00E+00
                        eps_diis:                                       1.00E-01
                        eps_eigval:                                     1.00E-05
                        --------------------------------------------------------
                        level_shift [a.u.]:                                 0.00
                        --------------------------------------------------------
                        Outer loop SCF in use 
                        No variables optimised in outer loop
                        eps_scf                                         5.00E-07
                        max_scf                                               20
                        No outer loop optimization
                        step_size                                       5.00E-01

 *******************************************************************************
 ***                     STARTING GEOMETRY OPTIMIZATION                      ***
 ***                                   BFGS                                  ***
 *******************************************************************************

 Number of electrons:                                                        296
 Number of occupied orbitals:                                                148
 Number of molecular orbitals:                                               148

 Number of orbital functions:                                               1344
 Number of independent orbital functions:                                   1344

 Extrapolation method: initial_guess

 *** 00:50:18 WARNING in qs_initial_guess:calculate_first_density_matrix  ***
 *** err=-300  User requested to restart the wavefunction from the file   ***
 *** named: temp-RESTART.wfn. This file does not exist. Please check the  ***
 *** existence of the file or change properly the value of the keyword    ***
 *** WFN_RESTART_FILE_NAME. Calculation continues using ATOMIC GUESS.     ***
 *** /usr/local/u/jmlarkin/CP2K/cp2k/makefiles/../src/qs_initial_guess.F  ***
 *** line    231                                                          ***


 SCF WAVEFUNCTION OPTIMIZATION

  ----------------------------------- OT ---------------------------------------

  Allowing for rotations:  F
  Optimizing orbital energies:  F
  Minimizer      : CG                  : conjugate gradient
  Preconditioner : FULL_KINETIC        : cholesky inversion of T + eS
  Precond_solver : DEFAULT
  Line search    : 2PNT                : 2 energies, one gradient
  stepsize       :    0.15000000
  energy_gap     :    0.20000000

  eps_taylor     :   0.10000E-15
  max_taylor     :             4

  mixed_precision    : F

  ----------------------------------- OT ---------------------------------------

  Step     Update method      Time    Convergence         Total energy    Change
  ------------------------------------------------------------------------------
     1 OT CG       0.15E+00    3.0     0.01546902      -390.5415840982 -3.91E+02
     2 OT LS       0.19E+00    1.9                     -394.9108796668
     3 OT CG       0.19E+00    3.8     0.00811312      -395.2595632158 -4.72E+00
     4 OT LS       0.30E+00    1.9                     -397.0667747480
     5 OT CG       0.30E+00    3.7     0.00605910      -397.3006495825 -2.04E+00
     6 OT LS       0.22E+00    1.9                     -398.0166524775
     7 OT CG       0.22E+00    3.8     0.00394351      -398.0948046858 -7.94E-01
     8 OT LS       0.21E+00    1.9                     -398.4246141392
     9 OT CG       0.21E+00    3.7     0.00237187      -398.4251525017 -3.30E-01
    10 OT LS       0.33E+00    1.9                     -398.5883224399
    11 OT CG       0.33E+00    3.8     0.00207954      -398.6129715989 -1.88E-01
    12 OT LS       0.37E+00    2.0                     -398.7697249179
    13 OT CG       0.37E+00    3.8     0.00176699      -398.7709394334 -1.58E-01
    14 OT LS       0.33E+00    1.9                     -398.8707979710
    15 OT CG       0.33E+00    3.8     0.00150883      -398.8722882564 -1.01E-01
    16 OT LS       0.27E+00    1.9                     -398.9314912127
    17 OT CG       0.27E+00    3.8     0.00119159      -398.9339174101 -6.16E-02
    18 OT LS       0.29E+00    2.0                     -398.9752307194
    19 OT CG       0.29E+00    3.7     0.00107722      -398.9754539352 -4.15E-02
    20 OT LS       0.28E+00    1.9                     -399.0083505380
    21 OT CG       0.28E+00    3.8     0.00090582      -399.0083808675 -3.29E-02
    22 OT LS       0.27E+00    1.9                     -399.0304975084
    23 OT CG       0.27E+00    3.7     0.00078434      -399.0305532925 -2.22E-02
    24 OT LS       0.27E+00    1.9                     -399.0472133552
    25 OT CG       0.27E+00    3.8     0.00066959      -399.0472135856 -1.67E-02
    26 OT LS       0.30E+00    1.9                     -399.0603405974
    27 OT CG       0.30E+00    3.7     0.00060193      -399.0604302880 -1.32E-02
    28 OT LS       0.30E+00    2.0                     -399.0712068746
    29 OT CG       0.30E+00    3.8     0.00054795      -399.0712077022 -1.08E-02
    30 OT LS       0.35E+00    2.0                     -399.0813428058
    31 OT CG       0.35E+00    3.8     0.00054213      -399.0815298010 -1.03E-02
    32 OT LS       0.31E+00    1.9                     -399.0905508930
    33 OT CG       0.31E+00    3.7     0.00048980      -399.0906532130 -9.12E-03
    34 OT LS       0.33E+00    1.9                     -399.0984448585
    35 OT CG       0.33E+00    3.8     0.00045756      -399.0984616149 -7.81E-03
    36 OT LS       0.30E+00    1.9                     -399.1046621773
    37 OT CG       0.30E+00    3.7     0.00043249      -399.1047131730 -6.25E-03
    38 OT LS       0.31E+00    2.0                     -399.1105461615
    39 OT CG       0.31E+00    3.8     0.00040814      -399.1105571362 -5.84E-03
    40 OT LS       0.32E+00    2.0                     -399.1158499186
    41 OT CG       0.32E+00    3.8     0.00040611      -399.1158515482 -5.29E-03
    42 OT LS       0.31E+00    1.9                     -399.1209711631
    43 OT CG       0.31E+00    3.6     0.00038941      -399.1209737946 -5.12E-03
    44 OT LS       0.33E+00    1.9                     -399.1259368996
    45 OT CG       0.33E+00    3.6     0.00037413      -399.1259509390 -4.98E-03
    46 OT LS       0.30E+00    1.9                     -399.1301576890
    47 OT CG       0.30E+00    3.6     0.00035385      -399.1301876923 -4.24E-03
    48 OT LS       0.33E+00    1.9                     -399.1342926652
    49 OT CG       0.33E+00    3.6     0.00034794      -399.1343219003 -4.13E-03
    50 OT LS       0.33E+00    1.9                     -399.1383396855

  *** SCF run NOT converged ***


  Electronic density on regular grids:       -295.9999999992        0.0000000008
  Core density on regular grids:              295.9999998986       -0.0000001014
  Total charge density on r-space grids:       -0.0000001005
  Total charge density g-space grids:          -0.0000001005

  Overlap energy of the core charge distribution:               0.90155453484353
  Self energy of the core charge distribution:               -878.06020568793315
  Core Hamiltonian energy:                                    203.34479908738868
  Hartree energy:                                             367.45020811612028
  Exchange-correlation energy:                                -92.72010876869261
  Dispersion energy:                                           -0.05458696723750

  Total energy:                                              -399.13833968551080

  outer SCF iter =    1 RMS gradient =   0.35E-03 energy =       -399.1383396855

  ----------------------------------- OT ---------------------------------------

  Allowing for rotations:  F
  Optimizing orbital energies:  F
  Minimizer      : CG                  : conjugate gradient
  Preconditioner : FULL_KINETIC        : cholesky inversion of T + eS
  Precond_solver : DEFAULT
  Line search    : 2PNT                : 2 energies, one gradient
  stepsize       :    0.15000000
  energy_gap     :    0.20000000

  eps_taylor     :   0.10000E-15
  max_taylor     :             4

  mixed_precision    : F

  ----------------------------------- OT ---------------------------------------

  Step     Update method      Time    Convergence         Total energy    Change
  ------------------------------------------------------------------------------
     1 OT CG       0.15E+00    5.6     0.00031013      -399.1383397743 -4.02E-03
     2 OT LS       0.27E+00    1.9                     -399.1404098165
     3 OT CG       0.27E+00    3.7     0.00022636      -399.1409140569 -2.57E-03
     4 OT LS       0.45E+00    1.9                     -399.1428440878
     5 OT CG       0.45E+00    3.8     0.00020659      -399.1432282012 -2.31E-03
     6 OT LS       0.66E+00    2.0                     -399.1457599274
     7 OT CG       0.66E+00    3.8     0.00022624      -399.1460350719 -2.81E-03
     8 OT LS       0.51E+00    1.9                     -399.1484251347
     9 OT CG       0.51E+00    3.8     0.00023539      -399.1486446824 -2.61E-03
    10 OT LS       0.44E+00    1.9                     -399.1510246289
    11 OT CG       0.44E+00    3.7     0.00020633      -399.1510850462 -2.44E-03
    12 OT LS       0.54E+00    1.9                     -399.1533043403
    13 OT CG       0.54E+00    3.8     0.00020222      -399.1533812560 -2.30E-03
    14 OT LS       0.53E+00    2.0                     -399.1555338790
    15 OT CG       0.53E+00    3.8     0.00020991      -399.1555351686 -2.15E-03
    16 OT LS       0.51E+00    2.0                     -399.1577703833
    17 OT CG       0.51E+00    3.8     0.00021292      -399.1577732293 -2.24E-03
    18 OT LS       0.51E+00    1.9                     -399.1600771037
    19 OT CG       0.51E+00    3.8     0.00019997      -399.1600771048 -2.30E-03
    20 OT LS       0.54E+00    2.0                     -399.1622049779
    21 OT CG       0.54E+00    3.8     0.00020510      -399.1622094565 -2.13E-03
    22 OT LS       0.47E+00    2.0                     -399.1641232783
    23 OT CG       0.47E+00    3.8     0.00019651      -399.1641645315 -1.96E-03
    24 OT LS       0.53E+00    2.0                     -399.1661716637
    25 OT CG       0.53E+00    3.8     0.00018989      -399.1661989358 -2.03E-03
    26 OT LS       0.51E+00    1.9                     -399.1680128462
    27 OT CG       0.51E+00    3.8     0.00018396      -399.1680168501 -1.82E-03
    28 OT LS       0.49E+00    2.0                     -399.1696583838
    29 OT CG       0.49E+00    3.8     0.00018152      -399.1696604793 -1.64E-03
    30 OT LS       0.55E+00    2.0                     -399.1714486982
    31 OT CG       0.55E+00    3.8     0.00018028      -399.1714724625 -1.81E-03
    32 OT LS       0.48E+00    2.0                     -399.1729891543
    33 OT CG       0.48E+00    3.8     0.00016407      -399.1730256134 -1.55E-03
    34 OT LS       0.47E+00    1.9                     -399.1742731375
    35 OT CG       0.47E+00    3.8     0.00014461      -399.1742740764 -1.25E-03
    36 OT LS       0.50E+00    2.0                     -399.1753035554
    37 OT CG       0.50E+00    3.7     0.00013839      -399.1753073107 -1.03E-03
    38 OT LS       0.50E+00    1.9                     -399.1762682725
    39 OT CG       0.50E+00    3.7     0.00013838      -399.1762684810 -9.61E-04
    40 OT LS       0.50E+00    1.9                     -399.1772196248
    41 OT CG       0.50E+00    3.7     0.00012783      -399.1772196934 -9.51E-04
    42 OT LS       0.52E+00    1.9                     -399.1780657670
    43 OT CG       0.52E+00    3.8     0.00012833      -399.1780673047 -8.48E-04
    44 OT LS       0.49E+00    1.9                     -399.1788697724
    45 OT CG       0.49E+00    3.7     0.00012060      -399.1788727677 -8.05E-04
    46 OT LS       0.48E+00    1.9                     -399.1795708427
    47 OT CG       0.48E+00    3.8     0.00011126      -399.1795710601 -6.98E-04
    48 OT LS       0.48E+00    2.0                     -399.1801667904
    49 OT CG       0.48E+00    3.8     0.00010746      -399.1801667939 -5.96E-04
    50 OT LS       0.50E+00    1.9                     -399.1807431029

  *** SCF run NOT converged ***


  Electronic density on regular grids:       -295.9999999991        0.0000000009
  Core density on regular grids:              295.9999998986       -0.0000001014
  Total charge density on r-space grids:       -0.0000001005
  Total charge density g-space grids:          -0.0000001005

  Overlap energy of the core charge distribution:               0.90155453484353
  Self energy of the core charge distribution:               -878.06020568793315
  Core Hamiltonian energy:                                    203.16885519779402
  Hartree energy:                                             367.54022521383786
  Exchange-correlation energy:                                -92.67658539424619
  Dispersion energy:                                           -0.05458696723750

  Total energy:                                              -399.18074310294151

  outer SCF iter =    2 RMS gradient =   0.11E-03 energy =       -399.1807431029

  ----------------------------------- OT ---------------------------------------

  Allowing for rotations:  F
  Optimizing orbital energies:  F
  Minimizer      : CG                  : conjugate gradient
  Preconditioner : FULL_KINETIC        : cholesky inversion of T + eS
  Precond_solver : DEFAULT
  Line search    : 2PNT                : 2 energies, one gradient
  stepsize       :    0.15000000
  energy_gap     :    0.20000000

  eps_taylor     :   0.10000E-15
  max_taylor     :             4

  mixed_precision    : F

  ----------------------------------- OT ---------------------------------------

  Step     Update method      Time    Convergence         Total energy    Change
  ------------------------------------------------------------------------------
     1 OT CG       0.15E+00    5.6     0.00009511      -399.1807438778 -5.77E-04
     2 OT LS       0.36E+00    1.9                     -399.1809579634
     3 OT CG       0.36E+00    3.6     0.00007032      -399.1810701760 -3.26E-04
     4 OT LS       0.71E+00    1.9                     -399.1813359583
     5 OT CG       0.71E+00    3.6     0.00007307      -399.1814200869 -3.50E-04
     6 OT LS       0.78E+00    1.9                     -399.1818330961
     7 OT CG       0.78E+00    3.6     0.00007746      -399.1818366846 -4.17E-04
     8 OT LS       0.78E+00    1.9                     -399.1823009829
     9 OT CG       0.78E+00    3.6     0.00008195      -399.1823010137 -4.64E-04
    10 OT LS       0.64E+00    1.9                     -399.1827074733
    11 OT CG       0.64E+00    3.7     0.00007686      -399.1827278357 -4.27E-04
    12 OT LS       0.66E+00    2.0                     -399.1831128410
    13 OT CG       0.66E+00    3.7     0.00007150      -399.1831131072 -3.85E-04
    14 OT LS       0.70E+00    1.9                     -399.1834688997
    15 OT CG       0.70E+00    3.8     0.00006822      -399.1834705149 -3.57E-04
    16 OT LS       0.70E+00    2.0                     -399.1837952053
    17 OT CG       0.70E+00    3.7     0.00006747      -399.1837952088 -3.25E-04
    18 OT LS       0.69E+00    2.0                     -399.1841057274
    19 OT CG       0.69E+00    3.8     0.00006731      -399.1841058510 -3.11E-04
    20 OT LS       0.68E+00    1.9                     -399.1844123197
    21 OT CG       0.68E+00    3.8     0.00006313      -399.1844123497 -3.06E-04
    22 OT LS       0.68E+00    1.9                     -399.1846808307
    23 OT CG       0.68E+00    3.8     0.00006060      -399.1846808376 -2.68E-04
    24 OT LS       0.69E+00    2.0                     -399.1849325718
    25 OT CG       0.69E+00    3.8     0.00005859      -399.1849326766 -2.52E-04
    26 OT LS       0.71E+00    2.0                     -399.1851745464
    27 OT CG       0.71E+00    3.7     0.00005972      -399.1851747008 -2.42E-04
    28 OT LS       0.71E+00    1.9                     -399.1854265475
    29 OT CG       0.71E+00    3.8     0.00005912      -399.1854265479 -2.52E-04
    30 OT LS       0.71E+00    2.0                     -399.1856721164
    31 OT CG       0.71E+00    3.9     0.00005730      -399.1856721175 -2.46E-04
    32 OT LS       0.68E+00    2.0                     -399.1858951596
    33 OT CG       0.68E+00    3.7     0.00005605      -399.1858954574 -2.23E-04
    34 OT LS       0.68E+00    2.0                     -399.1861065497
    35 OT CG       0.68E+00    3.8     0.00005480      -399.1861065713 -2.11E-04
    36 OT LS       0.69E+00    2.0                     -399.1863136437
    37 OT CG       0.69E+00    3.8     0.00005496      -399.1863137921 -2.07E-04
    38 OT LS       0.74E+00    1.9                     -399.1865361056
    39 OT CG       0.74E+00    3.8     0.00005536      -399.1865369764 -2.23E-04
    40 OT LS       0.69E+00    1.9                     -399.1867465948
    41 OT CG       0.69E+00    3.7     0.00005572      -399.1867476479 -2.11E-04
    42 OT LS       0.67E+00    2.0                     -399.1869537760
    43 OT CG       0.67E+00    3.7     0.00005206      -399.1869540378 -2.06E-04
    44 OT LS       0.66E+00    2.0                     -399.1871329776
    45 OT CG       0.66E+00    3.8     0.00005108      -399.1871329940 -1.79E-04
    46 OT LS       0.84E+00    1.9                     -399.1873416439
    47 OT CG       0.84E+00    3.8     0.00006205      -399.1873518433 -2.19E-04
    48 OT LS       0.80E+00    1.9                     -399.1876583787
    49 OT CG       0.80E+00    3.8     0.00006833      -399.1876593190 -3.07E-04
    50 OT LS       0.66E+00    2.0                     -399.1879539409

  *** SCF run NOT converged ***


  Electronic density on regular grids:       -295.9999999992        0.0000000008
  Core density on regular grids:              295.9999998986       -0.0000001014
  Total charge density on r-space grids:       -0.0000001005
  Total charge density g-space grids:          -0.0000001005

  Overlap energy of the core charge distribution:               0.90155453484353
  Self energy of the core charge distribution:               -878.06020568793315
  Core Hamiltonian energy:                                    203.13616523007124
  Hartree energy:                                             367.55926310277681
  Exchange-correlation energy:                                -92.67014415343598
  Dispersion energy:                                           -0.05458696723750

  Total energy:                                              -399.18795394091512

  outer SCF iter =    3 RMS gradient =   0.68E-04 energy =       -399.1879539409

  ----------------------------------- OT ---------------------------------------

  Allowing for rotations:  F
  Optimizing orbital energies:  F
  Minimizer      : CG                  : conjugate gradient
  Preconditioner : FULL_KINETIC        : cholesky inversion of T + eS
  Precond_solver : DEFAULT
  Line search    : 2PNT                : 2 energies, one gradient
  stepsize       :    0.15000000
  energy_gap     :    0.20000000

  eps_taylor     :   0.10000E-15
  max_taylor     :             4

  mixed_precision    : F

  ----------------------------------- OT ---------------------------------------

  Step     Update method      Time    Convergence         Total energy    Change
  ------------------------------------------------------------------------------
     1 OT CG       0.15E+00    5.8     0.00005922      -399.1879677810 -3.08E-04
     2 OT LS       0.43E+00    1.9                     -399.1880543113
     3 OT CG       0.43E+00    3.8     0.00004181      -399.1881189149 -1.51E-04
     4 OT LS       0.83E+00    1.9                     -399.1882301878
     5 OT CG       0.83E+00    3.7     0.00003736      -399.1882629991 -1.44E-04
     6 OT LS       0.74E+00    1.9                     -399.1883646721
     7 OT CG       0.74E+00    3.7     0.00003211      -399.1883660627 -1.03E-04
     8 OT LS       0.86E+00    1.9                     -399.1884528947
     9 OT CG       0.86E+00    3.6     0.00003252      -399.1884546577 -8.86E-05
    10 OT LS       0.89E+00    1.9                     -399.1885485206
    11 OT CG       0.89E+00    3.6     0.00003316      -399.1885486193 -9.40E-05
    12 OT LS       0.90E+00    1.9                     -399.1886467790
    13 OT CG       0.90E+00    3.6     0.00003330      -399.1886467818 -9.82E-05
    14 OT LS       0.85E+00    1.9                     -399.1887406723
    15 OT CG       0.85E+00    3.7     0.00003244      -399.1887409287 -9.41E-05
    16 OT LS       0.85E+00    1.9                     -399.1888295110
    17 OT CG       0.85E+00    3.6     0.00003236      -399.1888295172 -8.86E-05
    18 OT LS       0.84E+00    1.9                     -399.1889169783
    19 OT CG       0.84E+00    3.7     0.00003113      -399.1889169828 -8.75E-05
    20 OT LS       0.89E+00    2.0                     -399.1890025614
    21 OT CG       0.89E+00    3.7     0.00003178      -399.1890028334 -8.59E-05
    22 OT LS       0.85E+00    1.9                     -399.1890880266
    23 OT CG       0.85E+00    3.8     0.00003231      -399.1890882166 -8.54E-05
    24 OT LS       0.79E+00    1.9                     -399.1891695483
    25 OT CG       0.79E+00    3.7     0.00003138      -399.1891700473 -8.18E-05
    26 OT LS       0.80E+00    1.9                     -399.1892480001
    27 OT CG       0.80E+00    3.7     0.00003044      -399.1892480072 -7.80E-05
    28 OT LS       0.81E+00    1.9                     -399.1893224406
    29 OT CG       0.81E+00    3.7     0.00002994      -399.1893224563 -7.44E-05
    30 OT LS       0.81E+00    2.0                     -399.1893950678
    31 OT CG       0.81E+00    3.9     0.00002974      -399.1893950726 -7.26E-05
    32 OT LS       0.88E+00    1.9                     -399.1894721294
    33 OT CG       0.88E+00    3.7     0.00003103      -399.1894725706 -7.75E-05
    34 OT LS       0.91E+00    1.9                     -399.1895598569
    35 OT CG       0.91E+00    3.7     0.00003176      -399.1895599641 -8.74E-05
    36 OT LS       0.85E+00    2.0                     -399.1896446778
    37 OT CG       0.85E+00    3.8     0.00003005      -399.1896451654 -8.52E-05
    38 OT LS       0.87E+00    2.0                     -399.1897236240
    39 OT CG       0.87E+00    3.7     0.00003041      -399.1897236900 -7.85E-05
    40 OT LS       0.88E+00    2.0                     -399.1898049762
    41 OT CG       0.88E+00    3.8     0.00003266      -399.1898049865 -8.13E-05
    42 OT LS       0.87E+00    1.9                     -399.1898969019
    43 OT CG       0.87E+00    3.9     0.00003136      -399.1898969423 -9.20E-05
    44 OT LS       0.89E+00    1.9                     -399.1899841496
    45 OT CG       0.89E+00    3.7     0.00003106      -399.1899842257 -8.73E-05
    46 OT LS       0.77E+00    2.0                     -399.1900562159
    47 OT CG       0.77E+00    3.8     0.00002948      -399.1900581038 -7.39E-05
    48 OT LS       0.91E+00    2.0                     -399.1901348320
    49 OT CG       0.91E+00    3.7     0.00003534      -399.1901366750 -7.86E-05
    50 OT LS       0.12E+01    1.9                     -399.1902755798

  *** SCF run NOT converged ***


  Electronic density on regular grids:       -295.9999999992        0.0000000008
  Core density on regular grids:              295.9999998986       -0.0000001014
  Total charge density on r-space grids:       -0.0000001005
  Total charge density g-space grids:          -0.0000001005

  Overlap energy of the core charge distribution:               0.90155453484353
  Self energy of the core charge distribution:               -878.06020568793315
  Core Hamiltonian energy:                                    203.13450355445423
  Hartree energy:                                             367.55794663093531
  Exchange-correlation energy:                                -92.66948764483071
  Dispersion energy:                                           -0.05458696723750

  Total energy:                                              -399.19027557976835

  outer SCF iter =    4 RMS gradient =   0.35E-04 energy =       -399.1902755798

  ----------------------------------- OT ---------------------------------------

  Allowing for rotations:  F
  Optimizing orbital energies:  F
  Minimizer      : CG                  : conjugate gradient
  Preconditioner : FULL_KINETIC        : cholesky inversion of T + eS
  Precond_solver : DEFAULT
  Line search    : 2PNT                : 2 energies, one gradient
  stepsize       :    0.15000000
  energy_gap     :    0.20000000

  eps_taylor     :   0.10000E-15
  max_taylor     :             4

  mixed_precision    : F

  ----------------------------------- OT ---------------------------------------

  Step     Update method      Time    Convergence         Total energy    Change
  ------------------------------------------------------------------------------
     1 OT CG       0.15E+00    5.9     0.00004240      -399.1902832633 -1.47E-04
     2 OT LS       0.45E+00    1.9                     -399.1903279669
     3 OT CG       0.45E+00    3.8     0.00002710      -399.1903637721 -8.05E-05
     4 OT LS       0.79E+00    2.0                     -399.1904108728
     5 OT CG       0.79E+00    3.7     0.00002511      -399.1904216653 -5.79E-05
     6 OT LS       0.83E+00    2.0                     -399.1904738076
     7 OT CG       0.83E+00    3.7     0.00002430      -399.1904739335 -5.23E-05
     8 OT LS       0.92E+00    1.9                     -399.1905272843
     9 OT CG       0.92E+00    3.8     0.00002385      -399.1905277178 -5.38E-05
    10 OT LS       0.93E+00    2.0                     -399.1905800919
    11 OT CG       0.93E+00    3.8     0.00002268      -399.1905800990 -5.24E-05
    12 OT LS       0.10E+01    2.0                     -399.1906312703
    13 OT CG       0.10E+01    3.8     0.00002199      -399.1906316004 -5.15E-05
    14 OT LS       0.94E+00    2.0                     -399.1906765418
    15 OT CG       0.94E+00    3.8     0.00002239      -399.1906767753 -4.52E-05
    16 OT LS       0.83E+00    1.9                     -399.1907176693
    17 OT CG       0.83E+00    3.6     0.00002220      -399.1907183399 -4.16E-05
    18 OT LS       0.83E+00    1.9                     -399.1907590639
    19 OT CG       0.83E+00    3.6     0.00002096      -399.1907590644 -4.07E-05
    20 OT LS       0.89E+00    1.9                     -399.1907976913
    21 OT CG       0.89E+00    3.6     0.00002015      -399.1907978523 -3.88E-05
    22 OT LS       0.92E+00    1.9                     -399.1908349181
    23 OT CG       0.92E+00    3.6     0.00001986      -399.1908349597 -3.71E-05
    24 OT LS       0.93E+00    1.9                     -399.1908715403
    25 OT CG       0.93E+00    3.6     0.00001968      -399.1908715484 -3.66E-05
    26 OT LS       0.91E+00    1.9                     -399.1909063897
    27 OT CG       0.91E+00    3.8     0.00002016      -399.1909064210 -3.49E-05
    28 OT LS       0.87E+00    1.9                     -399.1909414152
    29 OT CG       0.87E+00    3.8     0.00002030      -399.1909414835 -3.51E-05
    30 OT LS       0.94E+00    1.9                     -399.1909799128
    31 OT CG       0.94E+00    3.8     0.00002017      -399.1909801704 -3.87E-05
    32 OT LS       0.97E+00    2.0                     -399.1910193246
    33 OT CG       0.97E+00    3.7     0.00001976      -399.1910193498 -3.92E-05
    34 OT LS       0.92E+00    2.0                     -399.1910551657
    35 OT CG       0.92E+00    3.8     0.00002031      -399.1910552483 -3.59E-05
    36 OT LS       0.85E+00    1.9                     -399.1910896798
    37 OT CG       0.85E+00    3.8     0.00002037      -399.1910899714 -3.47E-05
    38 OT LS       0.84E+00    2.0                     -399.1911248037
    39 OT CG       0.84E+00    3.8     0.00002016      -399.1911248041 -3.48E-05
    40 OT LS       0.96E+00    2.0                     -399.1911628837
    41 OT CG       0.96E+00    3.8     0.00002047      -399.1911634057 -3.86E-05
    42 OT LS       0.87E+00    2.0                     -399.1911992757
    43 OT CG       0.87E+00    3.7     0.00001960      -399.1911996278 -3.62E-05
    44 OT LS       0.96E+00    2.0                     -399.1912359945
    45 OT CG       0.96E+00    3.8     0.00001972      -399.1912363249 -3.67E-05
    46 OT LS       0.92E+00    2.0                     -399.1912719202
    47 OT CG       0.92E+00    3.7     0.00002067      -399.1912719832 -3.57E-05
    48 OT LS       0.10E+01    2.0                     -399.1913150413
    49 OT CG       0.10E+01    3.8     0.00002220      -399.1913154624 -4.35E-05
    50 OT LS       0.86E+00    2.0                     -399.1913564167

  *** SCF run NOT converged ***


  Electronic density on regular grids:       -295.9999999992        0.0000000008
  Core density on regular grids:              295.9999998986       -0.0000001014
  Total charge density on r-space grids:       -0.0000001005
  Total charge density g-space grids:          -0.0000001005

  Overlap energy of the core charge distribution:               0.90155453484353
  Self energy of the core charge distribution:               -878.06020568793315
  Core Hamiltonian energy:                                    203.13004254981919
  Hartree energy:                                             367.56078931722800
  Exchange-correlation energy:                                -92.66895016344156
  Dispersion energy:                                           -0.05458696723750

  Total energy:                                              -399.19135641672142

  outer SCF iter =    5 RMS gradient =   0.22E-04 energy =       -399.1913564167

  ----------------------------------- OT ---------------------------------------

  Allowing for rotations:  F
  Optimizing orbital energies:  F
  Minimizer      : CG                  : conjugate gradient
  Preconditioner : FULL_KINETIC        : cholesky inversion of T + eS
  Precond_solver : DEFAULT
  Line search    : 2PNT                : 2 energies, one gradient
  stepsize       :    0.15000000
  energy_gap     :    0.20000000

  eps_taylor     :   0.10000E-15
  max_taylor     :             4

  mixed_precision    : F

  ----------------------------------- OT ---------------------------------------

  Step     Update method      Time    Convergence         Total energy    Change
  ------------------------------------------------------------------------------
     1 OT CG       0.15E+00    5.8     0.00002043      -399.1913578437 -4.24E-05
     2 OT LS       0.58E+00    2.0                     -399.1913686983
     3 OT CG       0.58E+00    3.8     0.00001708      -399.1913820921 -2.42E-05
     4 OT LS       0.11E+01    2.0                     -399.1914070490
     5 OT CG       0.11E+01    3.8     0.00001853      -399.1914142274 -3.21E-05
     6 OT LS       0.87E+00    2.0                     -399.1914418360
     7 OT CG       0.87E+00    3.8     0.00001732      -399.1914440097 -2.98E-05
     8 OT LS       0.97E+00    1.9                     -399.1914727544
     9 OT CG       0.97E+00    3.7     0.00001655      -399.1914730723 -2.91E-05
    10 OT LS       0.95E+00    1.9                     -399.1914990385
    11 OT CG       0.95E+00    3.7     0.00001628      -399.1914990504 -2.60E-05
    12 OT LS       0.10E+01    1.9                     -399.1915254706
    13 OT CG       0.10E+01    3.8     0.00001680      -399.1915255394 -2.65E-05
    14 OT LS       0.89E+00    2.0                     -399.1915500589
    15 OT CG       0.89E+00    3.8     0.00001670      -399.1915504848 -2.49E-05
    16 OT LS       0.10E+01    2.0                     -399.1915781390
    17 OT CG       0.10E+01    3.8     0.00001621      -399.1915785596 -2.81E-05
    18 OT LS       0.96E+00    1.9                     -399.1916036238
    19 OT CG       0.96E+00    3.8     0.00001626      -399.1916036949 -2.51E-05
    20 OT LS       0.88E+00    2.0                     -399.1916266751
    21 OT CG       0.88E+00    3.8     0.00001613      -399.1916268671 -2.32E-05
    22 OT LS       0.95E+00    2.0                     -399.1916513753
    23 OT CG       0.95E+00    3.7     0.00001638      -399.1916515140 -2.46E-05
    24 OT LS       0.94E+00    1.9                     -399.1916766944
    25 OT CG       0.94E+00    3.7     0.00001604      -399.1916766966 -2.52E-05
    26 OT LS       0.97E+00    1.9                     -399.1917014667
    27 OT CG       0.97E+00    3.6     0.00001547      -399.1917014834 -2.48E-05
    28 OT LS       0.10E+01    1.9                     -399.1917257207
    29 OT CG       0.10E+01    3.6     0.00001541      -399.1917257826 -2.43E-05
    30 OT LS       0.97E+00    1.9                     -399.1917486923
    31 OT CG       0.97E+00    3.6     0.00001495      -399.1917487478 -2.30E-05
    32 OT LS       0.10E+01    1.9                     -399.1917709717
    33 OT CG       0.10E+01    3.6     0.00001514      -399.1917709891 -2.22E-05
    34 OT LS       0.96E+00    1.9                     -399.1917929271
    35 OT CG       0.96E+00    3.7     0.00001593      -399.1917929590 -2.20E-05
    36 OT LS       0.92E+00    1.9                     -399.1918161794
    37 OT CG       0.92E+00    3.8     0.00001604      -399.1918162286 -2.33E-05
    38 OT LS       0.90E+00    1.9                     -399.1918392430
    39 OT CG       0.90E+00    3.8     0.00001530      -399.1918392571 -2.30E-05
    40 OT LS       0.11E+01    1.9                     -399.1918632764
    41 OT CG       0.11E+01    3.7     0.00001560      -399.1918638057 -2.45E-05
    42 OT LS       0.10E+01    2.0                     -399.1918883877
    43 OT CG       0.10E+01    3.8     0.00001636      -399.1918884212 -2.46E-05
    44 OT LS       0.10E+01    2.0                     -399.1919149547
    45 OT CG       0.10E+01    3.8     0.00001679      -399.1919149654 -2.65E-05
    46 OT LS       0.94E+00    1.9                     -399.1919413347
    47 OT CG       0.94E+00    3.8     0.00001669      -399.1919414202 -2.65E-05
    48 OT LS       0.11E+01    2.0                     -399.1919706979
    49 OT CG       0.11E+01    3.8     0.00001755      -399.1919711283 -2.97E-05
    50 OT LS       0.92E+00    2.0                     -399.1919984089

  *** SCF run NOT converged ***


  Electronic density on regular grids:       -295.9999999992        0.0000000008
  Core density on regular grids:              295.9999998986       -0.0000001014
  Total charge density on r-space grids:       -0.0000001005
  Total charge density g-space grids:          -0.0000001005

  Overlap energy of the core charge distribution:               0.90155453484353
  Self energy of the core charge distribution:               -878.06020568793315
  Core Hamiltonian energy:                                    203.12741278029495
  Hartree energy:                                             367.56188689007979
  Exchange-correlation energy:                                -92.66805995891808
  Dispersion energy:                                           -0.05458696723750

  Total energy:                                              -399.19199840887052

  outer SCF iter =    6 RMS gradient =   0.18E-04 energy =       -399.1919984089

  ----------------------------------- OT ---------------------------------------

  Allowing for rotations:  F
  Optimizing orbital energies:  F
  Minimizer      : CG                  : conjugate gradient
  Preconditioner : FULL_KINETIC        : cholesky inversion of T + eS
  Precond_solver : DEFAULT
  Line search    : 2PNT                : 2 energies, one gradient
  stepsize       :    0.15000000
  energy_gap     :    0.20000000

  eps_taylor     :   0.10000E-15
  max_taylor     :             4

  mixed_precision    : F

  ----------------------------------- OT ---------------------------------------

  Step     Update method      Time    Convergence         Total energy    Change
  ------------------------------------------------------------------------------
     1 OT CG       0.15E+00    5.9     0.00001746      -399.1919992169 -2.81E-05
     2 OT LS       0.57E+00    1.9                     -399.1920071222
     3 OT CG       0.57E+00    3.7     0.00001418      -399.1920165829 -1.74E-05
     4 OT LS       0.11E+01    1.9                     -399.1920337692
     5 OT CG       0.11E+01    3.8     0.00001492      -399.1920395393 -2.30E-05
     6 OT LS       0.99E+00    1.9                     -399.1920609919
     7 OT CG       0.99E+00    3.8     0.00001477      -399.1920615271 -2.20E-05
     8 OT LS       0.10E+01    2.0                     -399.1920837271
     9 OT CG       0.10E+01    3.8     0.00001458      -399.1920837462 -2.22E-05
    10 OT LS       0.91E+00    2.0                     -399.1921025874
    11 OT CG       0.91E+00    3.8     0.00001334      -399.1921029065 -1.92E-05
    12 OT LS       0.11E+01    1.9                     -399.1921211734
    13 OT CG       0.11E+01    3.8     0.00001287      -399.1921215263 -1.86E-05
    14 OT LS       0.11E+01    1.9                     -399.1921389296
    15 OT CG       0.11E+01    3.7     0.00001344      -399.1921389301 -1.74E-05
    16 OT LS       0.10E+01    2.0                     -399.1921569915
    17 OT CG       0.10E+01    3.8     0.00001357      -399.1921570347 -1.81E-05
    18 OT LS       0.91E+00    2.0                     -399.1921735479
    19 OT CG       0.91E+00    3.7     0.00001245      -399.1921737325 -1.67E-05
    20 OT LS       0.98E+00    1.9                     -399.1921887812
    21 OT CG       0.98E+00    3.8     0.00001194      -399.1921888570 -1.51E-05
    22 OT LS       0.10E+01    2.0                     -399.1922033895
    23 OT CG       0.10E+01    3.7     0.00001252      -399.1922034181 -1.46E-05
    24 OT LS       0.10E+01    2.0                     -399.1922189386
    25 OT CG       0.10E+01    3.8     0.00001246      -399.1922189538 -1.55E-05
    26 OT LS       0.11E+01    1.9                     -399.1922353399
    27 OT CG       0.11E+01    3.7     0.00001261      -399.1922354121 -1.65E-05
    28 OT LS       0.11E+01    1.9                     -399.1922527649
    29 OT CG       0.11E+01    3.7     0.00001301      -399.1922527800 -1.74E-05
    30 OT LS       0.94E+00    1.9                     -399.1922681108
    31 OT CG       0.94E+00    3.8     0.00001241      -399.1922685741 -1.58E-05
    32 OT LS       0.96E+00    1.9                     -399.1922832276
    33 OT CG       0.96E+00    3.6     0.00001175      -399.1922832332 -1.47E-05
    34 OT LS       0.12E+01    1.9                     -399.1922988428
    35 OT CG       0.12E+01    3.6     0.00001218      -399.1922994159 -1.62E-05
    36 OT LS       0.11E+01    1.9                     -399.1923147368
    37 OT CG       0.11E+01    3.6     0.00001288      -399.1923149563 -1.55E-05
    38 OT LS       0.84E+00    1.9                     -399.1923279718
    39 OT CG       0.84E+00    3.6     0.00001229      -399.1923288466 -1.39E-05
    40 OT LS       0.10E+01    1.9                     -399.1923437500
    41 OT CG       0.10E+01    3.6     0.00001168      -399.1923442343 -1.54E-05
    42 OT LS       0.11E+01    1.9                     -399.1923588674
    43 OT CG       0.11E+01    3.7     0.00001209      -399.1923589101 -1.47E-05
    44 OT LS       0.11E+01    1.9                     -399.1923747242
    45 OT CG       0.11E+01    3.8     0.00001268      -399.1923747248 -1.58E-05
    46 OT LS       0.96E+00    1.9                     -399.1923898231
    47 OT CG       0.96E+00    3.8     0.00001242      -399.1923900961 -1.54E-05
    48 OT LS       0.12E+01    2.0                     -399.1924075921
    49 OT CG       0.12E+01    3.7     0.00001237      -399.1924082282 -1.81E-05
    50 OT LS       0.10E+01    1.9                     -399.1924239050

  *** SCF run NOT converged ***


  Electronic density on regular grids:       -295.9999999992        0.0000000008
  Core density on regular grids:              295.9999998986       -0.0000001014
  Total charge density on r-space grids:       -0.0000001005
  Total charge density g-space grids:          -0.0000001005

  Overlap energy of the core charge distribution:               0.90155453484353
  Self energy of the core charge distribution:               -878.06020568793315
  Core Hamiltonian energy:                                    203.12530964952055
  Hartree energy:                                             367.56329812035028
  Exchange-correlation energy:                                -92.66779355458040
  Dispersion energy:                                           -0.05458696723750

  Total energy:                                              -399.19242390503666

  outer SCF iter =    7 RMS gradient =   0.12E-04 energy =       -399.1924239050

  ----------------------------------- OT ---------------------------------------

  Allowing for rotations:  F
  Optimizing orbital energies:  F
  Minimizer      : CG                  : conjugate gradient
  Preconditioner : FULL_KINETIC        : cholesky inversion of T + eS
  Precond_solver : DEFAULT
  Line search    : 2PNT                : 2 energies, one gradient
  stepsize       :    0.15000000
  energy_gap     :    0.20000000

  eps_taylor     :   0.10000E-15
  max_taylor     :             4

  mixed_precision    : F

  ----------------------------------- OT ---------------------------------------

  Step     Update method      Time    Convergence         Total energy    Change
  ------------------------------------------------------------------------------
     1 OT CG       0.15E+00    5.8     0.00001234      -399.1924241706 -1.59E-05
     2 OT LS       0.60E+00    1.9                     -399.1924281614
     3 OT CG       0.60E+00    3.8     0.00000977      -399.1924334821 -9.31E-06
     4 OT LS       0.13E+01    1.9                     -399.1924425053
     5 OT CG       0.13E+01    3.8     0.00001106      -399.1924463857 -1.29E-05
     6 OT LS       0.11E+01    1.9                     -399.1924582923
     7 OT CG       0.11E+01    3.8     0.00001127      -399.1924591828 -1.28E-05
     8 OT LS       0.11E+01    1.9                     -399.1924731188
     9 OT CG       0.11E+01    3.7     0.00001102      -399.1924731533 -1.40E-05
    10 OT LS       0.10E+01    1.9                     -399.1924854418
    11 OT CG       0.10E+01    3.7     0.00001036      -399.1924855232 -1.24E-05
    12 OT LS       0.11E+01    1.9                     -399.1924969880
    13 OT CG       0.11E+01    3.8     0.00001040      -399.1924970153 -1.15E-05
    14 OT LS       0.10E+01    1.9                     -399.1925081518
    15 OT CG       0.10E+01    3.7     0.00001057      -399.1925081682 -1.12E-05
    16 OT LS       0.11E+01    2.0                     -399.1925206145
    17 OT CG       0.11E+01    3.8     0.00001072      -399.1925206987 -1.25E-05
    18 OT LS       0.11E+01    1.9                     -399.1925332475
    19 OT CG       0.11E+01    3.7     0.00001051      -399.1925332569 -1.26E-05
    20 OT LS       0.95E+00    1.9                     -399.1925434929
    21 OT CG       0.95E+00    3.8     0.00001025      -399.1925437354 -1.05E-05
    22 OT LS       0.10E+01    1.9                     -399.1925542905
    23 OT CG       0.10E+01    3.7     0.00001043      -399.1925543269 -1.06E-05
    24 OT LS       0.11E+01    1.9                     -399.1925662861
    25 OT CG       0.11E+01    3.8     0.00001046      -399.1925663868 -1.21E-05
    26 OT LS       0.11E+01    2.0                     -399.1925784517
    27 OT CG       0.11E+01    3.8     0.00001061      -399.1925784520 -1.21E-05
    28 OT LS       0.11E+01    1.9                     -399.1925906825
    29 OT CG       0.11E+01    3.8     0.00001059      -399.1925906852 -1.22E-05
    30 OT LS       0.10E+01    2.0                     -399.1926020667
    31 OT CG       0.10E+01    3.8     0.00000943      -399.1926021182 -1.14E-05
    32 OT LS       0.11E+01    2.0                     -399.1926114033
    33 OT CG       0.11E+01    3.8     0.00000948      -399.1926114094 -9.29E-06
    34 OT LS       0.11E+01    2.0                     -399.1926211832
    35 OT CG       0.11E+01    3.8     0.00001003      -399.1926211993 -9.79E-06
    36 OT LS       0.11E+01    1.9                     -399.1926322138
    37 OT CG       0.11E+01    3.9     0.00001014      -399.1926322141 -1.10E-05
    38 OT LS       0.10E+01    1.9                     -399.1926427686
    39 OT CG       0.10E+01    3.8     0.00001009      -399.1926428103 -1.06E-05
    40 OT LS       0.10E+01    1.9                     -399.1926533512
    41 OT CG       0.10E+01    3.8     0.00000986      -399.1926533513 -1.05E-05
    42 OT LS       0.10E+01    1.9                     -399.1926634255
    43 OT CG       0.10E+01    3.6     0.00001018      -399.1926634256 -1.01E-05
    44 OT LS       0.12E+01    1.9                     -399.1926753938
    45 OT CG       0.12E+01    3.6     0.00001102      -399.1926755502 -1.21E-05
    46 OT LS       0.11E+01    1.9                     -399.1926885309
    47 OT CG       0.11E+01    3.7     0.00001103      -399.1926886257 -1.31E-05
    48 OT LS       0.10E+01    1.9                     -399.1927012470
    49 OT CG       0.10E+01    3.6     0.00001078      -399.1927012649 -1.26E-05
    50 OT LS       0.10E+01    1.9                     -399.1927128970

  *** SCF run NOT converged ***


  Electronic density on regular grids:       -295.9999999992        0.0000000008
  Core density on regular grids:              295.9999998986       -0.0000001014
  Total charge density on r-space grids:       -0.0000001005
  Total charge density g-space grids:          -0.0000001005

  Overlap energy of the core charge distribution:               0.90155453484353
  Self energy of the core charge distribution:               -878.06020568793315
  Core Hamiltonian energy:                                    203.12144560742360
  Hartree energy:                                             367.56595646098259
  Exchange-correlation energy:                                -92.66687684511132
  Dispersion energy:                                           -0.05458696723750

  Total energy:                                              -399.19271289703227

  outer SCF iter =    8 RMS gradient =   0.11E-04 energy =       -399.1927128970

  ----------------------------------- OT ---------------------------------------

  Allowing for rotations:  F
  Optimizing orbital energies:  F
  Minimizer      : CG                  : conjugate gradient
  Preconditioner : FULL_KINETIC        : cholesky inversion of T + eS
  Precond_solver : DEFAULT
  Line search    : 2PNT                : 2 energies, one gradient
  stepsize       :    0.15000000
  energy_gap     :    0.20000000

  eps_taylor     :   0.10000E-15
  max_taylor     :             4

  mixed_precision    : F

  ----------------------------------- OT ---------------------------------------

  Step     Update method      Time    Convergence         Total energy    Change
  ------------------------------------------------------------------------------
     1 OT CG       0.15E+00    5.6     0.00001034      -399.1927129125 -1.16E-05
     2 OT LS       0.60E+00    1.9                     -399.1927157472
     3 OT CG       0.60E+00    3.8     0.00000798      -399.1927199829 -7.07E-06
     4 OT LS       0.14E+01    1.9                     -399.1927265161
     5 OT CG       0.14E+01    3.8     0.00000977      -399.1927298106 -9.83E-06
     6 OT LS       0.10E+01    1.9                     -399.1927384818
     7 OT CG       0.10E+01    3.8     0.00000941      -399.1927397625 -9.95E-06
     8 OT LS       0.12E+01    1.9                     -399.1927504655
     9 OT CG       0.12E+01    3.8     0.00000990      -399.1927507387 -1.10E-05
    10 OT LS       0.92E+00    2.0                     -399.1927585387
    11 OT CG       0.92E+00    3.8     0.00000887      -399.1927596816 -8.94E-06
    12 OT LS       0.12E+01    2.0                     -399.1927686191
    13 OT CG       0.12E+01    3.8     0.00000879      -399.1927691917 -9.51E-06
    14 OT LS       0.11E+01    1.9                     -399.1927771361
    15 OT CG       0.11E+01    3.8     0.00000887      -399.1927773200 -8.13E-06
    16 OT LS       0.11E+01    1.9                     -399.1927861114
    17 OT CG       0.11E+01    3.7     0.00000876      -399.1927861474 -8.83E-06
    18 OT LS       0.11E+01    1.9                     -399.1927942576
    19 OT CG       0.11E+01    3.8     0.00000849      -399.1927942851 -8.14E-06
    20 OT LS       0.10E+01    2.0                     -399.1928015135
    21 OT CG       0.10E+01    3.8     0.00000800      -399.1928015359 -7.25E-06
    22 OT LS       0.12E+01    2.0                     -399.1928091783
    23 OT CG       0.12E+01    3.8     0.00000863      -399.1928094623 -7.93E-06
    24 OT LS       0.11E+01    1.9                     -399.1928175875
    25 OT CG       0.11E+01    3.8     0.00000855      -399.1928177050 -8.24E-06
    26 OT LS       0.11E+01    2.0                     -399.1928259838
    27 OT CG       0.11E+01    3.8     0.00000854      -399.1928259879 -8.28E-06
    28 OT LS       0.12E+01    2.0                     -399.1928345388
    29 OT CG       0.12E+01    3.8     0.00000889      -399.1928345495 -8.56E-06
    30 OT LS       0.11E+01    1.9                     -399.1928428749
    31 OT CG       0.11E+01    3.8     0.00000845      -399.1928429636 -8.41E-06
    32 OT LS       0.11E+01    1.9                     -399.1928505423
    33 OT CG       0.11E+01    3.8     0.00000830      -399.1928505424 -7.58E-06
    34 OT LS       0.12E+01    2.0                     -399.1928584149
    35 OT CG       0.12E+01    3.7     0.00000852      -399.1928584630 -7.92E-06
    36 OT LS       0.11E+01    2.0                     -399.1928663025
    37 OT CG       0.11E+01    3.8     0.00000828      -399.1928663312 -7.87E-06
    38 OT LS       0.10E+01    2.0                     -399.1928733034
    39 OT CG       0.10E+01    3.8     0.00000806      -399.1928733298 -7.00E-06
    40 OT LS       0.11E+01    1.9                     -399.1928806623
    41 OT CG       0.11E+01    3.8     0.00000825      -399.1928807423 -7.41E-06
    42 OT LS       0.11E+01    1.9                     -399.1928879872
    43 OT CG       0.11E+01    3.8     0.00000833      -399.1928880197 -7.28E-06
    44 OT LS       0.12E+01    1.9                     -399.1928961445
    45 OT CG       0.12E+01    3.8     0.00000843      -399.1928962208 -8.20E-06
    46 OT LS       0.12E+01    2.0                     -399.1929047297
    47 OT CG       0.12E+01    3.9     0.00000867      -399.1929047310 -8.51E-06
    48 OT LS       0.10E+01    1.9                     -399.1929123348
    49 OT CG       0.10E+01    3.7     0.00000785      -399.1929125235 -7.79E-06
    50 OT LS       0.11E+01    1.9                     -399.1929192557

  *** SCF run NOT converged ***


  Electronic density on regular grids:       -295.9999999992        0.0000000008
  Core density on regular grids:              295.9999998986       -0.0000001014
  Total charge density on r-space grids:       -0.0000001005
  Total charge density g-space grids:          -0.0000001005

  Overlap energy of the core charge distribution:               0.90155453484353
  Self energy of the core charge distribution:               -878.06020568793315
  Core Hamiltonian energy:                                    203.12202259501112
  Hartree energy:                                             367.56537432410289
  Exchange-correlation energy:                                -92.66707805448169
  Dispersion energy:                                           -0.05458696723750

  Total energy:                                              -399.19291925569479

  outer SCF iter =    9 RMS gradient =   0.78E-05 energy =       -399.1929192557

  ----------------------------------- OT ---------------------------------------

  Allowing for rotations:  F
  Optimizing orbital energies:  F
  Minimizer      : CG                  : conjugate gradient
  Preconditioner : FULL_KINETIC        : cholesky inversion of T + eS
  Precond_solver : DEFAULT
  Line search    : 2PNT                : 2 energies, one gradient
  stepsize       :    0.15000000
  energy_gap     :    0.20000000

  eps_taylor     :   0.10000E-15
  max_taylor     :             4

  mixed_precision    : F

  ----------------------------------- OT ---------------------------------------

  Step     Update method      Time    Convergence         Total energy    Change
  ------------------------------------------------------------------------------
     1 OT CG       0.15E+00    5.6     0.00000823      -399.1929192756 -6.75E-06
     2 OT LS       0.60E+00    1.9                     -399.1929210778
     3 OT CG       0.60E+00    3.6     0.00000616      -399.1929238324 -4.56E-06
     4 OT LS       0.14E+01    1.9                     -399.1929277449
     5 OT CG       0.14E+01    3.6     0.00000718      -399.1929296557 -5.82E-06
     6 OT LS       0.11E+01    1.9                     -399.1929347253
     7 OT CG       0.11E+01    3.6     0.00000701      -399.1929352097 -5.55E-06
     8 OT LS       0.14E+01    1.9                     -399.1929417447
     9 OT CG       0.14E+01    3.6     0.00000787      -399.1929421166 -6.91E-06
    10 OT LS       0.10E+01    1.9                     -399.1929475404
    11 OT CG       0.10E+01    3.8     0.00000762      -399.1929484358 -6.32E-06
    12 OT LS       0.12E+01    1.9                     -399.1929553093
    13 OT CG       0.12E+01    3.8     0.00000736      -399.1929554912 -7.06E-06
    14 OT LS       0.11E+01    2.0                     -399.1929612653
    15 OT CG       0.11E+01    3.7     0.00000727      -399.1929613537 -5.86E-06
    16 OT LS       0.12E+01    1.9                     -399.1929676674
    17 OT CG       0.12E+01    3.7     0.00000740      -399.1929677368 -6.38E-06
    18 OT LS       0.12E+01    1.9                     -399.1929743099
    19 OT CG       0.12E+01    3.7     0.00000762      -399.1929743103 -6.57E-06
    20 OT LS       0.11E+01    1.9                     -399.1929802538
    21 OT CG       0.11E+01    3.7     0.00000725      -399.1929803829 -6.07E-06
    22 OT LS       0.13E+01    1.9                     -399.1929868375
    23 OT CG       0.13E+01    3.7     0.00000756      -399.1929870370 -6.65E-06
    24 OT LS       0.11E+01    2.0                     -399.1929934372
    25 OT CG       0.11E+01    3.8     0.00000729      -399.1929935246 -6.49E-06
    26 OT LS       0.12E+01    2.0                     -399.1929996714
    27 OT CG       0.12E+01    3.7     0.00000711      -399.1929996738 -6.15E-06
    28 OT LS       0.13E+01    1.9                     -399.1930059378
    29 OT CG       0.13E+01    3.8     0.00000752      -399.1930059704 -6.30E-06
    30 OT LS       0.11E+01    2.0                     -399.1930121955
    31 OT CG       0.11E+01    3.8     0.00000707      -399.1930122833 -6.31E-06
    32 OT LS       0.11E+01    2.0                     -399.1930179708
    33 OT CG       0.11E+01    3.7     0.00000704      -399.1930179732 -5.69E-06
    34 OT LS       0.11E+01    1.9                     -399.1930236240
    35 OT CG       0.11E+01    3.9     0.00000720      -399.1930236241 -5.65E-06
    36 OT LS       0.11E+01    1.9                     -399.1930295353
    37 OT CG       0.11E+01    3.8     0.00000700      -399.1930295353 -5.91E-06
    38 OT LS       0.11E+01    1.9                     -399.1930347554
    39 OT CG       0.11E+01    3.8     0.00000692      -399.1930347788 -5.24E-06
    40 OT LS       0.12E+01    1.9                     -399.1930405195
    41 OT CG       0.12E+01    3.7     0.00000699      -399.1930406035 -5.82E-06
    42 OT LS       0.12E+01    2.0                     -399.1930465517
    43 OT CG       0.12E+01    3.8     0.00000731      -399.1930465517 -5.95E-06
    44 OT LS       0.12E+01    2.0                     -399.1930528293
    45 OT CG       0.12E+01    3.7     0.00000732      -399.1930528369 -6.29E-06
    46 OT LS       0.14E+01    1.9                     -399.1930599655
    47 OT CG       0.14E+01    3.8     0.00000794      -399.1930600911 -7.25E-06
    48 OT LS       0.99E+00    1.9                     -399.1930654088
    49 OT CG       0.99E+00    3.7     0.00000687      -399.1930662910 -6.20E-06
    50 OT LS       0.12E+01    1.9                     -399.1930716795

  *** SCF run NOT converged ***


  Electronic density on regular grids:       -295.9999999992        0.0000000008
  Core density on regular grids:              295.9999998986       -0.0000001014
  Total charge density on r-space grids:       -0.0000001005
  Total charge density g-space grids:          -0.0000001005

  Overlap energy of the core charge distribution:               0.90155453484353
  Self energy of the core charge distribution:               -878.06020568793315
  Core Hamiltonian energy:                                    203.12021233291296
  Hartree energy:                                             367.56663134981289
  Exchange-correlation energy:                                -92.66667724188765
  Dispersion energy:                                           -0.05458696723750

  Total energy:                                              -399.19307167948898

  outer SCF iter =   10 RMS gradient =   0.69E-05 energy =       -399.1930716795

  ----------------------------------- OT ---------------------------------------

  Allowing for rotations:  F
  Optimizing orbital energies:  F
  Minimizer      : CG                  : conjugate gradient
  Preconditioner : FULL_KINETIC        : cholesky inversion of T + eS
  Precond_solver : DEFAULT
  Line search    : 2PNT                : 2 energies, one gradient
  stepsize       :    0.15000000
  energy_gap     :    0.20000000

  eps_taylor     :   0.10000E-15
  max_taylor     :             4

  mixed_precision    : F

  ----------------------------------- OT ---------------------------------------

  Step     Update method      Time    Convergence         Total energy    Change
  ------------------------------------------------------------------------------
     1 OT CG       0.15E+00    5.8     0.00000758      -399.1930718235 -5.53E-06
     2 OT LS       0.60E+00    2.0                     -399.1930733603
     3 OT CG       0.60E+00    3.7     0.00000547      -399.1930758404 -4.02E-06
     4 OT LS       0.15E+01    1.9                     -399.1930790017
     5 OT CG       0.15E+01    3.8     0.00000679      -399.1930806811 -4.84E-06
     6 OT LS       0.11E+01    1.9                     -399.1930848099
     7 OT CG       0.11E+01    3.7     0.00000615      -399.1930855213 -4.84E-06
     8 OT LS       0.15E+01    1.9                     -399.1930906908
     9 OT CG       0.15E+01    3.6     0.00000686      -399.1930912097 -5.69E-06
    10 OT LS       0.11E+01    1.9                     -399.1930951861
    11 OT CG       0.11E+01    3.6     0.00000652      -399.1930961298 -4.92E-06
    12 OT LS       0.13E+01    1.9                     -399.1931015335
    13 OT CG       0.13E+01    3.6     0.00000644      -399.1931017991 -5.67E-06
    14 OT LS       0.11E+01    1.9                     -399.1931060300
    15 OT CG       0.11E+01    3.6     0.00000649      -399.1931062806 -4.48E-06
    16 OT LS       0.12E+01    1.9                     -399.1931113602
    17 OT CG       0.12E+01    3.6     0.00000629      -399.1931114296 -5.15E-06
    18 OT LS       0.13E+01    1.9                     -399.1931165769
    19 OT CG       0.13E+01    3.7     0.00000655      -399.1931165986 -5.17E-06
    20 OT LS       0.11E+01    2.0                     -399.1931210029
    21 OT CG       0.11E+01    3.8     0.00000608      -399.1931212158 -4.62E-06
    22 OT LS       0.14E+01    1.9                     -399.1931260129
    23 OT CG       0.14E+01    3.8     0.00000638      -399.1931262261 -5.01E-06
    24 OT LS       0.12E+01    1.9                     -399.1931307431
    25 OT CG       0.12E+01    3.8     0.00000618      -399.1931308943 -4.67E-06
    26 OT LS       0.12E+01    1.9                     -399.1931354345
    27 OT CG       0.12E+01    3.7     0.00000596      -399.1931354406 -4.55E-06
    28 OT LS       0.14E+01    1.9                     -399.1931403056
    29 OT CG       0.14E+01    3.7     0.00000658      -399.1931404187 -4.98E-06
    30 OT LS       0.11E+01    2.0                     -399.1931450918
    31 OT CG       0.11E+01    3.8     0.00000625      -399.1931453516 -4.93E-06
    32 OT LS       0.13E+01    2.0                     -399.1931502316
    33 OT CG       0.13E+01    3.7     0.00000637      -399.1931502749 -4.92E-06
    34 OT LS       0.11E+01    1.9                     -399.1931548177
    35 OT CG       0.11E+01    3.8     0.00000643      -399.1931548741 -4.60E-06
    36 OT LS       0.12E+01    1.9                     -399.1931597360
    37 OT CG       0.12E+01    3.7     0.00000603      -399.1931597425 -4.87E-06
    38 OT LS       0.12E+01    2.0                     -399.1931639762
    39 OT CG       0.12E+01    3.7     0.00000621      -399.1931639766 -4.23E-06
    40 OT LS       0.12E+01    2.0                     -399.1931687062
    41 OT CG       0.12E+01    3.8     0.00000616      -399.1931687196 -4.74E-06
    42 OT LS       0.13E+01    2.0                     -399.1931734686
    43 OT CG       0.13E+01    3.8     0.00000622      -399.1931734698 -4.75E-06
    44 OT LS       0.11E+01    1.9                     -399.1931778018
    45 OT CG       0.11E+01    3.8     0.00000573      -399.1931778511 -4.38E-06
    46 OT LS       0.14E+01    2.0                     -399.1931822739
    47 OT CG       0.14E+01    3.8     0.00000597      -399.1931824416 -4.59E-06
    48 OT LS       0.11E+01    1.9                     -399.1931858060
    49 OT CG       0.11E+01    3.7     0.00000540      -399.1931862050 -3.76E-06
    50 OT LS       0.12E+01    1.9                     -399.1931896428

  *** SCF run NOT converged ***


  Electronic density on regular grids:       -295.9999999992        0.0000000008
  Core density on regular grids:              295.9999998986       -0.0000001014
  Total charge density on r-space grids:       -0.0000001005
  Total charge density g-space grids:          -0.0000001005

  Overlap energy of the core charge distribution:               0.90155453484353
  Self energy of the core charge distribution:               -878.06020568793315
  Core Hamiltonian energy:                                    203.12063837969953
  Hartree energy:                                             367.56621242766221
  Exchange-correlation energy:                                -92.66680232986023
  Dispersion energy:                                           -0.05458696723750

  Total energy:                                              -399.19318964282564

  outer SCF iter =   11 RMS gradient =   0.54E-05 energy =       -399.1931896428

  ----------------------------------- OT ---------------------------------------

  Allowing for rotations:  F
  Optimizing orbital energies:  F
  Minimizer      : CG                  : conjugate gradient
  Preconditioner : FULL_KINETIC        : cholesky inversion of T + eS
  Precond_solver : DEFAULT
  Line search    : 2PNT                : 2 energies, one gradient
  stepsize       :    0.15000000
  energy_gap     :    0.20000000

  eps_taylor     :   0.10000E-15
  max_taylor     :             4

  mixed_precision    : F

  ----------------------------------- OT ---------------------------------------

  Step     Update method      Time    Convergence         Total energy    Change
  ------------------------------------------------------------------------------
     1 OT CG       0.15E+00    5.8     0.00000623      -399.1931896898 -3.48E-06
     2 OT LS       0.60E+00    1.9                     -399.1931907286
     3 OT CG       0.60E+00    3.8     0.00000421      -399.1931924292 -2.74E-06
     4 OT LS       0.15E+01    2.0                     -399.1931943015
     5 OT CG       0.15E+01    3.8     0.00000523      -399.1931953112 -2.88E-06
     6 OT LS       0.11E+01    2.0                     -399.1931980785
     7 OT CG       0.11E+01    3.8     0.00000476      -399.1931983683 -3.06E-06
     8 OT LS       0.17E+01    1.9                     -399.1932017623
     9 OT CG       0.17E+01    3.7     0.00000576      -399.1932022062 -3.84E-06
    10 OT LS       0.11E+01    1.9                     -399.1932047214
    11 OT CG       0.11E+01    3.8     0.00000565      -399.1932058269 -3.62E-06
    12 OT LS       0.14E+01    2.0                     -399.1932100864
    13 OT CG       0.14E+01    3.7     0.00000564      -399.1932103119 -4.49E-06
    14 OT LS       0.12E+01    2.0                     -399.1932138055
    15 OT CG       0.12E+01    3.7     0.00000571      -399.1932139824 -3.67E-06
    16 OT LS       0.13E+01    1.9                     -399.1932181433
    17 OT CG       0.13E+01    3.6     0.00000565      -399.1932181902 -4.21E-06
    18 OT LS       0.14E+01    1.9                     -399.1932226386
    19 OT CG       0.14E+01    3.6     0.00000602      -399.1932226683 -4.48E-06
    20 OT LS       0.11E+01    1.9                     -399.1932264603
    21 OT CG       0.11E+01    3.6     0.00000560      -399.1932267221 -4.05E-06
    22 OT LS       0.14E+01    1.9                     -399.1932308649
    23 OT CG       0.14E+01    3.6     0.00000563      -399.1932310068 -4.28E-06
    24 OT LS       0.13E+01    1.9                     -399.1932349129
    25 OT CG       0.13E+01    3.7     0.00000556      -399.1932349524 -3.95E-06
    26 OT LS       0.12E+01    1.9                     -399.1932385492
    27 OT CG       0.12E+01    3.8     0.00000521      -399.1932385649 -3.61E-06
    28 OT LS       0.15E+01    1.9                     -399.1932424359
    29 OT CG       0.15E+01    3.8     0.00000579      -399.1932426340 -4.07E-06
    30 OT LS       0.11E+01    2.0                     -399.1932459932
    31 OT CG       0.11E+01    3.8     0.00000539      -399.1932464051 -3.77E-06
    32 OT LS       0.13E+01    2.0                     -399.1932501632
    33 OT CG       0.13E+01    3.8     0.00000543      -399.1932502489 -3.84E-06
    34 OT LS       0.12E+01    2.0                     -399.1932538468
    35 OT CG       0.12E+01    3.8     0.00000559      -399.1932538685 -3.62E-06
    36 OT LS       0.12E+01    1.9                     -399.1932576070
    37 OT CG       0.12E+01    3.7     0.00000535      -399.1932576095 -3.74E-06
    38 OT LS       0.13E+01    2.0                     -399.1932611832
    39 OT CG       0.13E+01    3.8     0.00000557      -399.1932611894 -3.58E-06
    40 OT LS       0.13E+01    2.0                     -399.1932650794
    41 OT CG       0.13E+01    3.8     0.00000545      -399.1932650794 -3.89E-06
    42 OT LS       0.13E+01    2.0                     -399.1932690352
    43 OT CG       0.13E+01    3.8     0.00000540      -399.1932690514 -3.97E-06
    44 OT LS       0.12E+01    1.9                     -399.1932726050
    45 OT CG       0.12E+01    3.8     0.00000528      -399.1932726344 -3.58E-06
    46 OT LS       0.14E+01    2.0                     -399.1932765522
    47 OT CG       0.14E+01    3.8     0.00000568      -399.1932766352 -4.00E-06
    48 OT LS       0.12E+01    2.0                     -399.1932802751
    49 OT CG       0.12E+01    3.8     0.00000526      -399.1932804499 -3.81E-06
    50 OT LS       0.11E+01    1.9                     -399.1932835527

  *** SCF run NOT converged ***


  Electronic density on regular grids:       -295.9999999992        0.0000000008
  Core density on regular grids:              295.9999998986       -0.0000001014
  Total charge density on r-space grids:       -0.0000001005
  Total charge density g-space grids:          -0.0000001005

  Overlap energy of the core charge distribution:               0.90155453484353
  Self energy of the core charge distribution:               -878.06020568793315
  Core Hamiltonian energy:                                    203.11956402107251
  Hartree energy:                                             367.56693533113321
  Exchange-correlation energy:                                -92.66654478455084
  Dispersion energy:                                           -0.05458696723750

  Total energy:                                              -399.19328355267226

  outer SCF iter =   12 RMS gradient =   0.53E-05 energy =       -399.1932835527

  ----------------------------------- OT ---------------------------------------

  Allowing for rotations:  F
  Optimizing orbital energies:  F
  Minimizer      : CG                  : conjugate gradient
  Preconditioner : FULL_KINETIC        : cholesky inversion of T + eS
  Precond_solver : DEFAULT
  Line search    : 2PNT                : 2 energies, one gradient
  stepsize       :    0.15000000
  energy_gap     :    0.20000000

  eps_taylor     :   0.10000E-15
  max_taylor     :             4

  mixed_precision    : F

  ----------------------------------- OT ---------------------------------------

  Step     Update method      Time    Convergence         Total energy    Change
  ------------------------------------------------------------------------------
     1 OT CG       0.15E+00    5.7     0.00000580      -399.1932835603 -3.11E-06
     2 OT LS       0.60E+00    1.9                     -399.1932844673
[...]
    48 OT LS       0.10E+01    1.9                     -399.1940475220
    49 OT CG       0.10E+01    3.8     0.00000105      -399.1940475342 -1.33E-07
    50 OT LS       0.11E+01    2.0                     -399.1940476515

  *** SCF run NOT converged ***


  Electronic density on regular grids:       -295.9999999991        0.0000000009
  Core density on regular grids:              295.9999998986       -0.0000001014
  Total charge density on r-space grids:       -0.0000001005
  Total charge density g-space grids:          -0.0000001005

  Overlap energy of the core charge distribution:               0.90155453484353
  Self energy of the core charge distribution:               -878.06020568793315
  Core Hamiltonian energy:                                    203.11707808353643
  Hartree energy:                                             367.56819640012026
  Exchange-correlation energy:                                -92.66608401487935
  Dispersion energy:                                           -0.05458696723750

  Total energy:                                              -399.19404765154985

  outer SCF iter =    9 RMS gradient =   0.11E-05 energy =       -399.1940476515

  ----------------------------------- OT ---------------------------------------

  Allowing for rotations:  F
  Optimizing orbital energies:  F
  Minimizer      : CG                  : conjugate gradient
  Preconditioner : FULL_KINETIC        : cholesky inversion of T + eS
  Precond_solver : DEFAULT
  Line search    : 2PNT                : 2 energies, one gradient
  stepsize       :    0.15000000
  energy_gap     :    0.20000000

  eps_taylor     :   0.10000E-15
  max_taylor     :             4

  mixed_precision    : F

  ----------------------------------- OT ---------------------------------------

  Step     Update method      Time    Convergence         Total energy    Change
  ------------------------------------------------------------------------------
     1 OT CG       0.15E+00    5.7     0.00000109      -399.1940476516 -1.17E-07
     2 OT LS       0.60E+00    2.0                     -399.1940476833
     3 OT CG       0.60E+00    3.8     0.00000083      -399.1940477285 -7.69E-08
     4 OT LS       0.13E+01    2.0                     -399.1940477961
     5 OT CG       0.13E+01    3.8     0.00000093      -399.1940478258 -9.73E-08
     6 OT LS       0.11E+01    1.9                     -399.1940479088
     7 OT CG       0.11E+01    3.8     0.00000087      -399.1940479156 -8.98E-08
     8 OT LS       0.14E+01    2.0                     -399.1940480164
     9 OT CG       0.14E+01    3.8     0.00000101      -399.1940480245 -1.09E-07
    10 OT LS       0.11E+01    1.9                     -399.1940481274
    11 OT CG       0.11E+01    3.6     0.00000100      -399.1940481372 -1.13E-07
    12 OT LS       0.11E+01    1.9                     -399.1940482516
    13 OT CG       0.11E+01    3.6     0.00000098      -399.1940482517 -1.15E-07
    14 OT LS       0.12E+01    1.9                     -399.1940483638
    15 OT CG       0.12E+01    3.6     0.00000100      -399.1940483639 -1.12E-07
    16 OT LS       0.11E+01    1.9                     -399.1940484764
    17 OT CG       0.11E+01    3.6     0.00000095      -399.1940484764 -1.13E-07
    18 OT LS       0.11E+01    1.9                     -399.1940485715
    19 OT CG       0.11E+01    3.6     0.00000092      -399.1940485720 -9.56E-08
    20 OT LS       0.12E+01    1.9                     -399.1940486706
    21 OT CG       0.12E+01    3.7     0.00000091      -399.1940486714 -9.95E-08
    22 OT LS       0.12E+01    1.9                     -399.1940487738
    23 OT CG       0.12E+01    3.7     0.00000091      -399.1940487741 -1.03E-07
    24 OT LS       0.12E+01    1.9                     -399.1940488709
    25 OT CG       0.12E+01    3.7     0.00000089      -399.1940488711 -9.70E-08
    26 OT LS       0.12E+01    2.0                     -399.1940489672
    27 OT CG       0.12E+01    3.8     0.00000089      -399.1940489672 -9.61E-08
    28 OT LS       0.12E+01    1.9                     -399.1940490590
    29 OT CG       0.12E+01    3.8     0.00000091      -399.1940490592 -9.19E-08
    30 OT LS       0.13E+01    1.9                     -399.1940491616
    31 OT CG       0.13E+01    3.8     0.00000098      -399.1940491622 -1.03E-07
    32 OT LS       0.12E+01    2.0                     -399.1940492758
    33 OT CG       0.12E+01    3.8     0.00000098      -399.1940492761 -1.14E-07
    34 OT LS       0.10E+01    2.0                     -399.1940493732
    35 OT CG       0.10E+01    3.8     0.00000094      -399.1940493754 -9.94E-08
    36 OT LS       0.12E+01    2.0                     -399.1940494795
    37 OT CG       0.12E+01    3.8     0.00000096      -399.1940494811 -1.06E-07
    38 OT LS       0.11E+01    1.9                     -399.1940495799
    39 OT CG       0.11E+01    3.8     0.00000088      -399.1940495811 -1.00E-07
    40 OT LS       0.11E+01    2.0                     -399.1940496683
    41 OT CG       0.11E+01    3.8     0.00000083      -399.1940496686 -8.74E-08
    42 OT LS       0.11E+01    2.0                     -399.1940497444
    43 OT CG       0.11E+01    3.8     0.00000081      -399.1940497445 -7.60E-08
    44 OT LS       0.11E+01    2.0                     -399.1940498159
    45 OT CG       0.11E+01    3.7     0.00000073      -399.1940498159 -7.14E-08
    46 OT LS       0.12E+01    1.9                     -399.1940498798
    47 OT CG       0.12E+01    3.8     0.00000076      -399.1940498807 -6.49E-08
    48 OT LS       0.11E+01    2.0                     -399.1940499405
    49 OT CG       0.11E+01    3.7     0.00000069      -399.1940499422 -6.14E-08
    50 OT LS       0.11E+01    2.0                     -399.1940499943

  *** SCF run NOT converged ***


  Electronic density on regular grids:       -295.9999999992        0.0000000008
  Core density on regular grids:              295.9999998986       -0.0000001014
  Total charge density on r-space grids:       -0.0000001005
  Total charge density g-space grids:          -0.0000001005

  Overlap energy of the core charge distribution:               0.90155453484353
  Self energy of the core charge distribution:               -878.06020568793315
  Core Hamiltonian energy:                                    203.11694376470933
  Hartree energy:                                             367.56835802485034
  Exchange-correlation energy:                                -92.66611366349304
  Dispersion energy:                                           -0.05458696723750

  Total energy:                                              -399.19404999426052

  outer SCF iter =   10 RMS gradient =   0.69E-06 energy =       -399.1940499943

  ----------------------------------- OT ---------------------------------------

  Allowing for rotations:  F
  Optimizing orbital energies:  F
  Minimizer      : CG                  : conjugate gradient
  Preconditioner : FULL_KINETIC        : cholesky inversion of T + eS
  Precond_solver : DEFAULT
  Line search    : 2PNT                : 2 energies, one gradient
  stepsize       :    0.15000000
  energy_gap     :    0.20000000

  eps_taylor     :   0.10000E-15
  max_taylor     :             4

  mixed_precision    : F

  ----------------------------------- OT ---------------------------------------

  Step     Update method      Time    Convergence         Total energy    Change
  ------------------------------------------------------------------------------
     1 OT CG       0.15E+00    5.9     0.00000074      -399.1940499943 -5.21E-08
     2 OT LS       0.60E+00    1.9                     -399.1940500087
     3 OT CG       0.60E+00    3.7     0.00000054      -399.1940500313 -3.70E-08
     4 OT LS       0.15E+01    1.9                     -399.1940500625
     5 OT CG       0.15E+01    3.7     0.00000067      -399.1940500804 -4.91E-08
     6 OT LS       0.11E+01    1.9                     -399.1940501188
     7 OT CG       0.11E+01    3.8     0.00000062      -399.1940501277 -4.73E-08
     8 OT LS       0.16E+01    1.9                     -399.1940501829
     9 OT CG       0.16E+01    3.7     0.00000075      -399.1940501909 -6.33E-08
    10 OT LS       0.11E+01    1.9                     -399.1940502400
    11 OT CG       0.11E+01    3.7     0.00000076      -399.1940502532 -6.22E-08
    12 OT LS       0.13E+01    1.9                     -399.1940503279
    13 OT CG       0.13E+01    3.8     0.00000080      -399.1940503299 -7.68E-08
    14 OT LS       0.13E+01    1.9                     -399.1940504126
    15 OT CG       0.13E+01    3.7     0.00000091      -399.1940504127 -8.27E-08
    16 OT LS       0.12E+01    2.0                     -399.1940505152
    17 OT CG       0.12E+01    3.7     0.00000089      -399.1940505154 -1.03E-07
    18 OT LS       0.12E+01    2.0                     -399.1940506102
    19 OT CG       0.12E+01    3.7     0.00000090      -399.1940506103 -9.48E-08
    20 OT LS       0.12E+01    1.9                     -399.1940507027
    21 OT CG       0.12E+01    3.6     0.00000086      -399.1940507029 -9.26E-08
    22 OT LS       0.12E+01    1.9                     -399.1940507933
    23 OT CG       0.12E+01    3.6     0.00000082      -399.1940507936 -9.08E-08
    24 OT LS       0.12E+01    1.9                     -399.1940508740
    25 OT CG       0.12E+01    3.6     0.00000083      -399.1940508740 -8.04E-08
    26 OT LS       0.12E+01    1.9                     -399.1940509567
    27 OT CG       0.12E+01    3.6     0.00000079      -399.1940509567 -8.27E-08
    28 OT LS       0.13E+01    1.9                     -399.1940510393
    29 OT CG       0.13E+01    3.6     0.00000080      -399.1940510401 -8.33E-08
    30 OT LS       0.12E+01    1.9                     -399.1940511191
    31 OT CG       0.12E+01    3.8     0.00000084      -399.1940511195 -7.94E-08
    32 OT LS       0.13E+01    1.9                     -399.1940512119
    33 OT CG       0.13E+01    3.8     0.00000085      -399.1940512123 -9.28E-08
    34 OT LS       0.12E+01    1.9                     -399.1940512947
    35 OT CG       0.12E+01    3.7     0.00000088      -399.1940512966 -8.43E-08
    36 OT LS       0.12E+01    2.0                     -399.1940513877
    37 OT CG       0.12E+01    3.7     0.00000089      -399.1940513877 -9.11E-08
    38 OT LS       0.13E+01    2.0                     -399.1940514864
    39 OT CG       0.13E+01    3.8     0.00000091      -399.1940514868 -9.91E-08
    40 OT LS       0.12E+01    1.9                     -399.1940515803
    41 OT CG       0.12E+01    3.8     0.00000090      -399.1940515812 -9.43E-08
    42 OT LS       0.12E+01    1.9                     -399.1940516804
    43 OT CG       0.12E+01    3.8     0.00000089      -399.1940516810 -9.99E-08
    44 OT LS       0.11E+01    1.9                     -399.1940517696
    45 OT CG       0.11E+01    3.7     0.00000077      -399.1940517704 -8.93E-08
    46 OT LS       0.13E+01    2.0                     -399.1940518474
    47 OT CG       0.13E+01    3.7     0.00000083      -399.1940518491 -7.88E-08
    48 OT LS       0.12E+01    1.9                     -399.1940519278
    49 OT CG       0.12E+01    3.8     0.00000077      -399.1940519295 -8.04E-08
    50 OT LS       0.11E+01    1.9                     -399.1940519964

  *** SCF run NOT converged ***


  Electronic density on regular grids:       -295.9999999992        0.0000000008
  Core density on regular grids:              295.9999998986       -0.0000001014
  Total charge density on r-space grids:       -0.0000001005
  Total charge density g-space grids:          -0.0000001005

  Overlap energy of the core charge distribution:               0.90155453484353
  Self energy of the core charge distribution:               -878.06020568793315
  Core Hamiltonian energy:                                    203.11699061603093
  Hartree energy:                                             367.56826279489599
  Exchange-correlation energy:                                -92.66606728699517
  Dispersion energy:                                           -0.05458696723750

  Total energy:                                              -399.19405199639539

  outer SCF iter =   11 RMS gradient =   0.77E-06 energy =       -399.1940519964

  ----------------------------------- OT ---------------------------------------

  Allowing for rotations:  F
  Optimizing orbital energies:  F
  Minimizer      : CG                  : conjugate gradient
  Preconditioner : FULL_KINETIC        : cholesky inversion of T + eS
  Precond_solver : DEFAULT
  Line search    : 2PNT                : 2 energies, one gradient
  stepsize       :    0.15000000
  energy_gap     :    0.20000000

  eps_taylor     :   0.10000E-15
  max_taylor     :             4

  mixed_precision    : F

  ----------------------------------- OT ---------------------------------------

  Step     Update method      Time    Convergence         Total energy    Change
  ------------------------------------------------------------------------------
     1 OT CG       0.15E+00    5.8     0.00000091      -399.1940519965 -6.70E-08
     2 OT LS       0.60E+00    1.9                     -399.1940520183
     3 OT CG       0.60E+00    3.7     0.00000066      -399.1940520494 -5.29E-08
     4 OT LS       0.15E+01    1.9                     -399.1940520934
     5 OT CG       0.15E+01    3.8     0.00000072      -399.1940521184 -6.90E-08
     6 OT LS       0.12E+01    2.0                     -399.1940521740
     7 OT CG       0.12E+01    3.7     0.00000071      -399.1940521787 -6.03E-08
     8 OT LS       0.16E+01    1.9                     -399.1940522526
     9 OT CG       0.16E+01    3.7     0.00000081      -399.1940522575 -7.88E-08
    10 OT LS       0.13E+01    1.9                     -399.1940523424
    11 OT CG       0.13E+01    3.8     0.00000084      -399.1940523453 -8.78E-08
    12 OT LS       0.11E+01    1.9                     -399.1940524236
    13 OT CG       0.11E+01    3.8     0.00000083      -399.1940524257 -8.05E-08
    14 OT LS       0.13E+01    2.0                     -399.1940525152
    15 OT CG       0.13E+01    3.8     0.00000085      -399.1940525169 -9.12E-08
    16 OT LS       0.13E+01    1.9                     -399.1940526082
    17 OT CG       0.13E+01    3.8     0.00000085      -399.1940526084 -9.15E-08
    18 OT LS       0.11E+01    1.9                     -399.1940526908
    19 OT CG       0.11E+01    3.8     0.00000079      -399.1940526917 -8.32E-08
    20 OT LS       0.13E+01    1.9                     -399.1940527714
    21 OT CG       0.13E+01    3.7     0.00000075      -399.1940527723 -8.07E-08
    22 OT LS       0.12E+01    2.1                     -399.1940528388
    23 OT CG       0.12E+01    3.8     0.00000073      -399.1940528391 -6.68E-08
    24 OT LS       0.14E+01    2.0                     -399.1940529098
    25 OT CG       0.14E+01    3.7     0.00000074      -399.1940529109 -7.18E-08
    26 OT LS       0.13E+01    2.0                     -399.1940529829
    27 OT CG       0.13E+01    3.7     0.00000076      -399.1940529830 -7.21E-08
    28 OT LS       0.12E+01    1.9                     -399.1940530527
    29 OT CG       0.12E+01    3.6     0.00000073      -399.1940530531 -7.02E-08
    30 OT LS       0.14E+01    1.9                     -399.1940531249
    31 OT CG       0.14E+01    3.6     0.00000077      -399.1940531256 -7.24E-08
    32 OT LS       0.14E+01    1.9                     -399.1940532074
    33 OT CG       0.14E+01    3.6     0.00000083      -399.1940532076 -8.20E-08
    34 OT LS       0.12E+01    1.9                     -399.1940532881
    35 OT CG       0.12E+01    3.6     0.00000081      -399.1940532902 -8.27E-08
    36 OT LS       0.14E+01    1.9                     -399.1940533773
    37 OT CG       0.14E+01    3.6     0.00000084      -399.1940533783 -8.80E-08
    38 OT LS       0.12E+01    1.9                     -399.1940534569
    39 OT CG       0.12E+01    3.7     0.00000079      -399.1940534593 -8.10E-08
    40 OT LS       0.12E+01    1.9                     -399.1940535319
    41 OT CG       0.12E+01    3.7     0.00000073      -399.1940535319 -7.26E-08
    42 OT LS       0.11E+01    1.9                     -399.1940535903
    43 OT CG       0.11E+01    3.8     0.00000069      -399.1940535905 -5.86E-08
    44 OT LS       0.12E+01    1.9                     -399.1940536454
    45 OT CG       0.12E+01    3.7     0.00000058      -399.1940536455 -5.50E-08
    46 OT LS       0.14E+01    1.9                     -399.1940536899
    47 OT CG       0.14E+01    3.8     0.00000065      -399.1940536912 -4.57E-08
    48 OT LS       0.11E+01    2.0                     -399.1940537326
    49 OT CG       0.11E+01    3.7     0.00000054      -399.1940537366 -4.54E-08
    50 OT LS       0.14E+01    2.0                     -399.1940537751

  *** SCF run NOT converged ***


  Electronic density on regular grids:       -295.9999999992        0.0000000008
  Core density on regular grids:              295.9999998986       -0.0000001014
  Total charge density on r-space grids:       -0.0000001005
  Total charge density g-space grids:          -0.0000001005

  Overlap energy of the core charge distribution:               0.90155453484353
  Self energy of the core charge distribution:               -878.06020568793315
  Core Hamiltonian energy:                                    203.11699121869151
  Hartree energy:                                             367.56831937714031
  Exchange-correlation energy:                                -92.66612625061735
  Dispersion energy:                                           -0.05458696723750

  Total energy:                                              -399.19405377511271

  outer SCF iter =   12 RMS gradient =   0.54E-06 energy =       -399.1940537751

  ----------------------------------- OT ---------------------------------------

  Allowing for rotations:  F
  Optimizing orbital energies:  F
  Minimizer      : CG                  : conjugate gradient
  Preconditioner : FULL_KINETIC        : cholesky inversion of T + eS
  Precond_solver : DEFAULT
  Line search    : 2PNT                : 2 energies, one gradient
  stepsize       :    0.15000000
  energy_gap     :    0.20000000

  eps_taylor     :   0.10000E-15
  max_taylor     :             4

  mixed_precision    : F

  ----------------------------------- OT ---------------------------------------

  Step     Update method      Time    Convergence         Total energy    Change
  ------------------------------------------------------------------------------
     1 OT CG       0.15E+00    5.9     0.00000064      -399.1940537771 -4.04E-08
     2 OT LS       0.60E+00    1.9                     -399.1940537882
     3 OT CG       0.60E+00    3.8     0.00000045      -399.1940538071 -3.01E-08

  *** SCF run converged in     3 steps ***


  Electronic density on regular grids:       -295.9999999992        0.0000000008
  Core density on regular grids:              295.9999998986       -0.0000001014
  Total charge density on r-space grids:       -0.0000001005
  Total charge density g-space grids:          -0.0000001005

  Overlap energy of the core charge distribution:               0.90155453484353
  Self energy of the core charge distribution:               -878.06020568793315
  Core Hamiltonian energy:                                    203.11693963647593
  Hartree energy:                                             367.56836900717366
  Exchange-correlation energy:                                -92.66612433046951
  Dispersion energy:                                           -0.05458696723750

  Total energy:                                              -399.19405380714704

  outer SCF iter =   13 RMS gradient =   0.45E-06 energy =       -399.1940538071
  outer SCF loop converged in  13 iterations or  603 steps


 ENERGY| Total FORCE_EVAL ( QS ) energy (a.u.):             -399.194053807147043

