      76
 i =        1, E =      -399.1939748683
 Cd       174.7654200000      -38.3163597000       70.4095803000
 Cd      -178.9052103000       21.0840003000       12.2791797000
 Cd      -158.5355697000       -3.4014600000      121.5301203000
 Cd      -121.4074197000       16.5298797000      -78.7396500000
 Cd      -108.3470400000      137.4730803000       12.3067197000
 Cd      -133.1788203000       79.0985700000      106.3667403000
 Cd       186.8231997000       25.9164900000        8.1958203000
 Cd       -53.7660603000      170.1490500000       72.3953403000
 Cd        82.9426500000     -137.1857697000      120.9332997000
 Cd      -133.2986103000      -70.9711497000       -8.2740897000
 Cd      -120.5013897000     -133.7423697000       74.6532297000
 Cd       -41.5757403000      -41.4889497000      -99.8832303000
 Cd       -66.8328597000       36.8087400000        3.8844000000
 Cd       -63.5649300000      -38.9763000000      104.0660100000
 Cd       -65.2179897000       25.5038103000      180.0035100000
 Cd       -12.7361700000       54.3281400000     -100.0199097000
 Cd         4.5722997000      150.1841997000      -12.1987197000
 Cd        -0.5123097000       75.1690197000      103.9557897000
 Cd       128.9781297000      -79.2186903000      -12.0879297000
 Cd        78.3465300000      137.5656903000      120.7946997000
 Cd       -66.8054403000     -166.2614397000       12.5175600000
 Cd        45.9756000000     -116.2701603000      -79.0054803000
 Cd         0.2705103000      -78.7417803000        3.5029197000
 Cd        -3.8360997000     -158.2471197000      108.3737997000
 Cd         8.5343400000      -70.6989600000      182.7929403000
 Cd        54.4322403000      -16.9313400000      -99.9774900000
 Cd        62.6793300000       37.2883797000        3.6232497000
 Cd        62.8763103000      -37.9291797000      104.3700903000
 Cd        54.2517300000       41.6789397000      179.5727403000
 Cd        78.9056703000       95.5988100000      -79.1224200000
 Cd       109.0056600000      138.0608397000        8.7216300000
 Cd       134.3539503000       73.7220897000      104.3856900000
 Cd        66.6057600000     -166.5917397000       12.3606000000
 Se      -179.8191603000      -24.0327000000      -49.5299097000
 Se      -201.4454403000       46.0316403000       78.3900900000
 Se      -130.3829100000       74.4392097000      -24.6356703000
 Se      -126.8719200000      153.3201300000       86.4370800000
 Se       -57.4931700000      193.5545103000       -3.5822097000
 Se      -140.1254397000       44.9861400000      177.5303703000
 Se      -140.2775100000     -147.0148497000       -1.6193700000
 Se      -134.9105103000      -58.9190103000       73.9262097000
 Se       -71.8794000000       21.0765600000     -136.0884303000
 Se       -61.8793200000      -38.5476300000      -25.2085203000
 Se       -65.8177497000       37.7517897000       80.6789097000
 Se       -64.9620603000      -51.4122003000      181.4877603000
 Se       109.6224597000       96.6888297000      176.2911297000
 Se        -3.0140703000       71.9379900000      -25.6320297000
 Se        18.9079803000      145.9214397000       71.9438697000
 Se       -12.1999500000       80.2386603000      181.1233800000
 Se        70.0350903000      166.4558100000      -50.7947400000
 Se       -70.5292497000     -190.0144503000       86.9325300000
 Se        16.6978800000      -75.5951103000     -136.0834200000
 Se        -2.3824197000     -152.1788400000      -26.0849097000
 Se        -1.0134297000      -79.4187900000       80.3234403000
 Se        56.1503403000       50.5577097000     -136.3795200000
 Se        62.4395097000      -36.5225697000      -25.6016700000
 Se        65.3457897000       36.7407900000       80.3909997000
 Se        74.7494397000      -31.4475903000      181.5259797000
 Se       128.6894403000       68.2439400000      -24.4176597000
 Se       142.6776300000      148.5172800000       74.9466603000
 Se        59.4632700000     -198.9862200000       79.0348500000
 Se        31.5945603000     -144.6157503000      177.5205900000
 Se       109.2982203000     -145.6125597000      -48.0944403000
 Se       116.4274803000      -87.4687500000       71.9298603000
 Se       198.8008803000      -49.6383003000       -4.1273100000
 Se       196.7635800000       31.8265497000       88.7583600000
  P       249.5372400000      102.6264600000       12.1673403000
  C       291.6855297000      125.1615600000      -11.1955797000
  O       234.9238500000       66.7992897000      -11.2998600000
  O       263.7072297000       91.5646797000       56.1491703000
  O       217.9172403000      137.9935800000       14.9790600000
  H       246.4772697000       69.6783897000       69.0695397000
  H       197.1570897000      137.5732197000       37.5392403000
  H       303.5943900000      149.5381203000        8.0609400000
  H       314.9814303000      101.9114703000      -16.0023303000
  H       282.1887297000      137.6608203000      -40.5400500000
      76
 i =        2, E =      -399.1940538071
 Cd       174.7654200000      -38.3163597000       70.4095803000
 Cd      -178.9052103000       21.0840003000       12.2791797000
 Cd      -158.5355697000       -3.4014600000      121.5301203000
 Cd      -121.4074197000       16.5298797000      -78.7396500000
 Cd      -108.3470400000      137.4730803000       12.3067197000
 Cd      -133.1788203000       79.0985700000      106.3667403000
 Cd       186.8231997000       25.9164900000        8.1958203000
 Cd       -53.7660603000      170.1490500000       72.3953403000
 Cd        82.9426500000     -137.1857697000      120.9332997000
 Cd      -133.2986103000      -70.9711497000       -8.2740897000
 Cd      -120.5013897000     -133.7423697000       74.6532297000
 Cd       -41.5757403000      -41.4889497000      -99.8832303000
 Cd       -66.8328597000       36.8087400000        3.8844000000
 Cd       -63.5649300000      -38.9763000000      104.0660100000
 Cd       -65.2179897000       25.5038103000      180.0035100000
 Cd       -12.7361700000       54.3281400000     -100.0199097000
 Cd         4.5722997000      150.1841997000      -12.1987197000
 Cd        -0.5123097000       75.1690197000      103.9557897000
 Cd       128.9781297000      -79.2186903000      -12.0879297000
 Cd        78.3465300000      137.5656903000      120.7946997000
 Cd       -66.8054403000     -166.2614397000       12.5175600000
 Cd        45.9756000000     -116.2701603000      -79.0054803000
 Cd         0.2705103000      -78.7417803000        3.5029197000
 Cd        -3.8360997000     -158.2471197000      108.3737997000
 Cd         8.5343400000      -70.6989600000      182.7929403000
 Cd        54.4322403000      -16.9313400000      -99.9774900000
 Cd        62.6793300000       37.2883797000        3.6232497000
 Cd        62.8763103000      -37.9291797000      104.3700903000
 Cd        54.2517300000       41.6789397000      179.5727403000
 Cd        78.9056703000       95.5988100000      -79.1224200000
 Cd       109.0056600000      138.0608397000        8.7216300000
 Cd       134.3539503000       73.7220897000      104.3856900000
 Cd        66.6057600000     -166.5917397000       12.3606000000
 Se      -179.8191603000      -24.0327000000      -49.5299097000
 Se      -201.4454403000       46.0316403000       78.3900900000
 Se      -130.3829100000       74.4392097000      -24.6356703000
 Se      -126.8719200000      153.3201300000       86.4370800000
 Se       -57.4931700000      193.5545103000       -3.5822097000
 Se      -140.1254397000       44.9861400000      177.5303703000
 Se      -140.2775100000     -147.0148497000       -1.6193700000
 Se      -134.9105103000      -58.9190103000       73.9262097000
 Se       -71.8794000000       21.0765600000     -136.0884303000
 Se       -61.8793200000      -38.5476300000      -25.2085203000
 Se       -65.8177497000       37.7517897000       80.6789097000
 Se       -64.9620603000      -51.4122003000      181.4877603000
 Se       109.6224597000       96.6888297000      176.2911297000
 Se        -3.0140703000       71.9379900000      -25.6320297000
 Se        18.9079803000      145.9214397000       71.9438697000
 Se       -12.1999500000       80.2386603000      181.1233800000
 Se        70.0350903000      166.4558100000      -50.7947400000
 Se       -70.5292497000     -190.0144503000       86.9325300000
 Se        16.6978800000      -75.5951103000     -136.0834200000
 Se        -2.3824197000     -152.1788400000      -26.0849097000
 Se        -1.0134297000      -79.4187900000       80.3234403000
 Se        56.1503403000       50.5577097000     -136.3795200000
 Se        62.4395097000      -36.5225697000      -25.6016700000
 Se        65.3457897000       36.7407900000       80.3909997000
 Se        74.7494397000      -31.4475903000      181.5259797000
 Se       128.6894403000       68.2439400000      -24.4176597000
 Se       142.6776300000      148.5172800000       74.9466603000
 Se        59.4632700000     -198.9862200000       79.0348500000
 Se        31.5945603000     -144.6157503000      177.5205900000
 Se       109.2982203000     -145.6125597000      -48.0944403000
 Se       116.4274803000      -87.4687500000       71.9298603000
 Se       198.8008803000      -49.6383003000       -4.1273100000
 Se       196.7635800000       31.8265497000       88.7583600000
  P       249.5372400000      102.6264600000       12.1673403000
  C       291.6855297000      125.1615600000      -11.1955797000
  O       234.9238500000       66.7992897000      -11.2998600000
  O       263.7072297000       91.5646797000       56.1491703000
  O       217.9172403000      137.9935800000       14.9790600000
  H       246.4772697000       69.6783897000       69.0695397000
  H       197.1570897000      137.5732197000       37.5392403000
  H       303.5943900000      149.5381203000        8.0609400000
  H       314.9814303000      101.9114703000      -16.0023303000
  H       282.1887297000      137.6608203000      -40.5400500000
